dsgdb9 ID	symmetry point group	composition	mu / D	alpha / bohr^3	E(HOMO) / eV	E(LUMO) / eV	chemical hardness / eV	zpve / eV	U(0K) / kcal.mol-1	U(298.15K) / kcal.mol-1	H(298.15K) / kcal.mol-1	G(298.15K) / kcal.mol-1	Cv(298.15K) / cal.mol-1.K-1	SMILES BASIC	SMILES STEREO	InChi1	InChi2
90152	C1	C8 N1 H13	1.5038	84.92	-6.04092774660944	2.25582391979244	8.29675166640188	5.35702397608901	-230411.451274562	-230406.504617378	-230405.912248435	-230431.416115989	32.596	CC1CC23CCCC12N3	C[C@H]1C[C@@]23CCC[C@@]12N3	InChI=1S/C8H13N/c1-6-5-7-3-2-4-8(6,7)9-7/h6,9H,2-5H2,1H3	InChI=1S/C8H13N/c1-6-5-7-3-2-4-8(6,7)9-7/h6,9H,2-5H2,1H3/t6-,7-,8+/m0/s1
46036	C1	N1 C7 O1 H11	3.3392	80.71	-6.82733680911851	0.936071686862003	7.76340849598051	4.69750160764499	-252988.987382505	-252983.770896247	-252983.178527303	-253010.066680758	31.746	N=C1CCC(O1)C1CC1	[NH][C]1CC[C@@H](O1)C1CC1	InChI=1S/C7H11NO/c8-7-4-3-6(9-7)5-1-2-5/h5-6,8H,1-4H2	InChI=1S/C7H11NO/c8-7-4-3-6(9-7)5-1-2-5/h5-6,8H,1-4H2/t6-/m1/s1
84657	C1	C7 N1 O1 H11	1.7246	79.38	-6.29943591594633	0.272113862459885	6.57154977840622	4.70637251956118	-252969.534588809	-252964.37897097	-252963.786602027	-252989.825107653	32.85	CC1C=CC2NC2C1O	C[C@H]1C=C[C@H]2N[C@H]2[C@H]1O	InChI=1S/C7H11NO/c1-4-2-3-5-6(8-5)7(4)9/h2-9H,1H3	InChI=1S/C7H11NO/c1-4-2-3-5-6(8-5)7(4)9/h2-9H,1H3/t4-,5+,6+,7-/m0/s1
63844	C2v	C9 H16	0.0497	91.16	-7.36612225678908	2.07350763194432	9.4396298887334	6.31004835658227	-221111.194227893	-221105.849729702	-221105.257360758	-221131.89827548	35.474	CC1(C)CC2CC(C2)C1	CC1(C)C[C@@H]2C[C@@H](C2)C1	InChI=1S/C9H16/c1-9(2)5-7-3-8(4-7)6-9/h7-8H,3-6H2,1-2H3	InChI=1S/C9H16/c1-9(2)5-7-3-8(4-7)6-9/h7-8H,3-6H2,1-2H3/t7-,8+
90072	C1	C7 N1 O1 H11	2.5567	80.99	-5.38785447670572	1.89935475997	7.28720923667571	4.59652015328613	-252881.879045396	-252876.714642424	-252876.122273481	-252901.963113623	33.085	CN1CC23CC(O2)C13C	CN1C[C@@]23C[C@@H](O2)[C@@]13C	InChI=1S/C7H11NO/c1-6-5-3-7(6,9-5)4-8(6)2/h5H,3-4H2,1-2H3	InChI=1S/C7H11NO/c1-6-5-3-7(6,9-5)4-8(6)2/h5H,3-4H2,1-2H3/t5-,6-,7-/m1/s1
118458	C1	N1 H11 C5 O3	5.5479	71.7	-6.87359616573669	0.598650497411746	7.47224666314843	4.65045312082567	-299605.68729587	-299599.373295543	-299598.78029909	-299628.078088924	36.147	[NH3+]CC(CCO)C([O-])=O	NC[C@@H](CCO)C(=O)O	InChI=1S/C5H11NO3/c6-3-4(1-2-7)5(8)9/h4,7H,1-3,6H2,(H,8,9)	InChI=1S/C5H11NO3/c6-3-4(1-2-7)5(8)9/h4,7H,1-3,6H2,(H,8,9)/t4-/m1/s1
99740	C1	C5 O3 N1 H11	6.4044	71.58	-6.87631730436128	0.394565100566833	7.27088240492812	4.65061638914315	-299611.856969019	-299605.830368031	-299605.237371578	-299633.618370071	35.796	CC(O)C(C[NH3+])C([O-])=O	C[C@@H](O)[C@@H](CN)C(=O)O	InChI=1S/C5H11NO3/c1-3(7)4(2-6)5(8)9/h3-4,7H,2,6H2,1H3,(H,8,9)	InChI=1S/C5H11NO3/c1-3(7)4(2-6)5(8)9/h3-4,7H,2,6H2,1H3,(H,8,9)/t3-,4-/m1/s1
122746	C1	C8 O1 H14	1.2408	93.45	-6.53073269903723	1.03947495459676	7.57020765363399	5.52467332675055	-243640.053798423	-243632.629733835	-243632.037364891	-243665.185552859	40.187	CCCCCC#CCO	CCCCCC#CCO	InChI=1S/C8H14O/c1-2-3-4-5-6-7-8-9/h9H,2-5,8H2,1H3	InChI=1S/C8H14O/c1-2-3-4-5-6-7-8-9/h9H,2-5,8H2,1H3
29177	C1	N3 C4 O2 H5	7.3657	66.57	-5.52935368518486	-0.557833418042764	4.97152026714209	2.76473126536492	-294971.650939243	-294966.456415817	-294965.864046873	-294992.302276035	30.019	NC1=CNC(=O)N1C=O	Nc1c[nH]c(=O)n1C=O	InChI=1S/C4H5N3O2/c5-3-1-6-4(9)7(3)2-8/h1-2H,5H2,(H,6,9)	InChI=1S/C4H5N3O2/c5-3-1-6-4(9)7(3)2-8/h1-2H,5H2,(H,6,9)
5580	C1	C5 N2 O1 H8	0.8024	68.57	-4.87355927665653	0.816341587379654	5.68990086403619	3.58621580474507	-238411.435272365	-238406.44217948	-238405.849810536	-238431.77222691	29.235	CNC1=C(N)OC=C1	CNc1c(N)occ1	InChI=1S/C5H8N2O/c1-7-4-2-3-8-5(4)6/h2-3,7H,6H2,1H3	InChI=1S/C5H8N2O/c1-7-4-2-3-8-5(4)6/h2-3,7H,6H2,1H3
111264	C1	C6 N2 O1 H10	2.9659	77.92	-5.8885439836319	0.503410645550787	6.39195462918269	4.30846041848609	-263030.332490534	-263024.627174395	-263024.034177942	-263051.611964309	34.183	CCN1C2CC2(O)C1=N	CCN1[C@H]2C[C@@]2(O)[C]1[NH]	InChI=1S/C6H10N2O/c1-2-8-4-3-6(4,9)5(8)7/h4,7,9H,2-3H2,1H3	InChI=1S/C6H10N2O/c1-2-8-4-3-6(4,9)5(8)7/h4,7,9H,2-3H2,1H3/t4-,6-/m0/s1
98801	Cs	C6 O1 N2 H10	3.3268	80.33	-6.76202948212813	-0.356469159822449	6.40556032230569	4.32119534724921	-263081.573031657	-263075.649342222	-263075.056345769	-263103.685210504	33.524	CCC(=O)N1CCC1=N	CCC(=O)N1CC[C]1[NH]	InChI=1S/C6H10N2O/c1-2-6(9)8-4-3-5(8)7/h7H,2-4H2,1H3	InChI=1S/C6H10N2O/c1-2-6(9)8-4-3-5(8)7/h7H,2-4H2,1H3
69813	C1	C7 O1 N1 H9	3.0572	76.92	-6.593318887403	-0.0734707428641689	6.51984814453884	4.049598501128	-252205.651618295	-252200.991732941	-252200.398736488	-252225.396203897	29.964	CC12OC1C1NC1C=C2	C[C@]12O[C@H]1[C@H]1N[C@H]1C=C2	InChI=1S/C7H9NO/c1-7-3-2-4-5(8-4)6(7)9-7/h2-6,8H,1H3	InChI=1S/C7H9NO/c1-7-3-2-4-5(8-4)6(7)9-7/h2-6,8H,1H3/t4-,5-,6-,7+/m0/s1
60454	C1	C8 O1 H16	1.6875	90.49	-7.12666205782438	2.30752555365982	9.4341876114842	6.18054936943761	-244403.631171823	-244396.763708138	-244396.171339195	-244426.951306407	39.603	CC(C)CCCC1CO1	CC(C)CCC[C@H]1CO1	InChI=1S/C8H16O/c1-7(2)4-3-5-8-6-9-8/h7-8H,3-6H2,1-2H3	InChI=1S/C8H16O/c1-7(2)4-3-5-8-6-9-8/h7-8H,3-6H2,1-2H3/t8-/m0/s1
132732	C1	C6 N2 F1 H7	2.0875	76.09	-5.82323665664153	-0.185037426472722	5.63819923016881	3.40093347579613	-277421.990566568	-277416.990571078	-277416.398202135	-277442.171898763	30.768	CC1=C(N)C(F)=CC=N1	Cc1c(N)c(F)ccn1	InChI=1S/C6H7FN2/c1-4-6(8)5(7)2-3-9-4/h2-3H,8H2,1H3	InChI=1S/C6H7FN2/c1-4-6(8)5(7)2-3-9-4/h2-3H,8H2,1H3
28735	C1	N2 C5 O2 H6	3.2071	71	-5.64364150741801	-0.819062726004253	4.82457878141376	3.05175696748761	-284878.933513101	-284873.579602269	-284872.986605816	-284900.681108944	29.988	NC1=CN=C(CC=O)O1	Nc1cnc(CC=O)o1	InChI=1S/C5H6N2O2/c6-4-3-7-5(9-4)1-2-8/h2-3H,1,6H2	InChI=1S/C5H6N2O2/c6-4-3-7-5(9-4)1-2-8/h2-3H,1,6H2
50533	C1	O2 C6 N1 H9	2.538	72.14	-6.8409425022415	-0.974167627606387	5.86677487463511	4.0133257232621	-275499.757109917	-275494.37245112	-275493.780082176	-275521.351593448	30.625	O=CC1COC1C1CN1	O=C[C@H]1CO[C@H]1[C@H]1CN1	InChI=1S/C6H9NO2/c8-2-4-3-9-6(4)5-1-7-5/h2,4-7H,1,3H2	InChI=1S/C6H9NO2/c8-2-4-3-9-6(4)5-1-7-5/h2,4-7H,1,3H2/t4-,5+,6+/m0/s1
30354	C1	O1 C7 N1 H9	3.1354	78.4	-5.60826670529822	0.889812330243823	6.49807903554205	4.10704173749329	-252252.082926809	-252247.298794579	-252246.706425636	-252272.155699866	30.226	OC1CCC2=CNC=C12	O[C@H]1CCc2c[nH]cc12	InChI=1S/C7H9NO/c9-7-2-1-5-3-8-4-6(5)7/h3-4,7-9H,1-2H2	InChI=1S/C7H9NO/c9-7-2-1-5-3-8-4-6(5)7/h3-4,7-9H,1-2H2/t7-/m0/s1
116526	C1	C5 N3 O1 H11	1.4245	81.84	-6.17970581646398	-0.4707569820556	5.70894883440838	4.6217723197224	-273891.46538812	-273884.972547592	-273884.380178649	-273913.96787786	37.205	CCN=C(N)C(=N)OC	CCN=C(N)[C]([NH])OC	InChI=1S/C5H11N3O/c1-3-8-4(6)5(7)9-2/h7H,3H2,1-2H3,(H2,6,8)	InChI=1S/C5H11N3O/c1-3-8-4(6)5(7)9-2/h7H,3H2,1-2H3,(H2,6,8)
10304	C1	C6 N2 H12	3.3692	75.63	-6.3620221043121	0.89525460749302	7.25727671180512	4.78014258767406	-216610.022334737	-216603.86207423	-216603.269705287	-216631.667019026	34.754	CCC(C#N)N(C)C	CC[C@@H](C#N)N(C)C	InChI=1S/C6H12N2/c1-4-6(5-7)8(2)3/h6H,4H2,1-3H3	InChI=1S/C6H12N2/c1-4-6(5-7)8(2)3/h6H,4H2,1-3H3/t6-/m0/s1
125284	Cs	C5 O2 N2 H4	4.405	76.74	-5.80963096351854	-2.09799787956571	3.71163308395283	2.40325521047321	-284120.054303134	-284115.138393914	-284114.54602497	-284140.511739498	28.177	CC1=CC2=C(ON=N2)O1	C[C]1C=C(C(=O)O1)[N][N]	InChI=1S/C5H4N2O2/c1-3-2-4-5(8-3)9-7-6-4/h2H,1H3	InChI=1S/C5H4N2O2/c1-3-2-4(7-6)5(8)9-3/h2H,1H3
101052	C1	C8 N1 H13	4.021	86.48	-7.67088978274415	0.998657875227777	8.66954765797192	5.24847775635376	-230440.179913304	-230433.749823723	-230433.15745478	-230462.282679509	37.786	CCC(C)C1(CC1)C#N	CC[C@@H](C)C1(CC1)C#N	InChI=1S/C8H13N/c1-3-7(2)8(6-9)4-5-8/h7H,3-5H2,1-2H3	InChI=1S/C8H13N/c1-3-7(2)8(6-9)4-5-8/h7H,3-5H2,1-2H3/t7-/m1/s1
46405	C1	N3 C5 O1 H7	4.6828	71.29	-7.0831238398308	0.0217691089967908	7.10489294882759	3.40085184163739	-272372.991607385	-272367.618871268	-272367.026502324	-272394.536517667	30.214	N=C1OCC1NCC#N	[NH][C]1OC[C@H]1NCC#N	InChI=1S/C5H7N3O/c6-1-2-8-4-3-9-5(4)7/h4,7-8H,2-3H2	InChI=1S/C5H7N3O/c6-1-2-8-4-3-9-5(4)7/h4,7-8H,2-3H2/t4-/m1/s1
22629	C1	C7 N1 O1 H9	1.309	84.55	-5.92391878575169	-0.868043221247032	5.05587556450466	4.01623734159042	-252205.278250158	-252200.116984734	-252199.52461579	-252225.603909532	32.27	CC12CC1C(C=C2)=NO	C[C@]12C[C@H]1C(=NO)C=C2	InChI=1S/C7H9NO/c1-7-3-2-6(8-9)5(7)4-7/h2-3,5,9H,4H2,1H3	InChI=1S/C7H9NO/c1-7-3-2-6(8-9)5(7)4-7/h2-3,5,9H,4H2,1H3/t5-,7-/m0/s1
125332	Cs	C6 N3 H7	3.8252	78.02	-6.19059037096238	-0.63674643815613	5.55384393280625	3.46036314335737	-249101.541090305	-249097.093930663	-249096.501561719	-249121.275635755	27.107	CC1=CN2N=CN=C2C1	CC1=Cn2ncnc2C1	InChI=1S/C6H7N3/c1-5-2-6-7-4-8-9(6)3-5/h3-4H,2H2,1H3	InChI=1S/C6H7N3/c1-5-2-6-7-4-8-9(6)3-5/h3-4H,2H2,1H3
13979	C1	C7 O1 H12	1.7341	75.47	-6.62597255089819	2.32929466265661	8.9552672135548	4.79725854962278	-218987.139919174	-218981.856916912	-218981.263920459	-219008.051672398	31.265	CCCC12CCC1O2	CCC[C@]12CC[C@H]1O2	InChI=1S/C7H12O/c1-2-4-7-5-3-6(7)8-7/h6H,2-5H2,1H3	InChI=1S/C7H12O/c1-2-4-7-5-3-6(7)8-7/h6H,2-5H2,1H3/t6-,7+/m1/s1
74872	C1	N3 C5 O1 H7	1.8253	72.73	-5.98650497411746	-0.40000737781603	5.58649759630143	3.4357096274185	-272400.841732863	-272396.138549354	-272395.546180411	-272420.810339346	29.303	NC1=NC2CC2N1C=O	NC1=N[C@H]2C[C@H]2N1C=O	InChI=1S/C5H7N3O/c6-5-7-3-1-4(3)8(5)2-9/h2-4H,1H2,(H2,6,7)	InChI=1S/C5H7N3O/c6-5-7-3-1-4(3)8(5)2-9/h2-4H,1H2,(H2,6,7)/t3-,4+/m0/s1
106925	C1	C7 N1 O1 H11	4.183	78.93	-6.71849126413455	-0.152383762977535	6.56610750115702	4.65660289411727	-252992.627564964	-252987.177017672	-252986.584648729	-253013.740121219	32.889	CCC12CN1C(=O)CC2	CC[C@@]12CN1C(=O)CC2	InChI=1S/C7H11NO/c1-2-7-4-3-6(9)8(7)5-7/h2-5H2,1H3	InChI=1S/C7H11NO/c1-2-7-4-3-6(9)8(7)5-7/h2-5H2,1H3/t7-,8?/m1/s1
116372	C1	C7 O2 H12	0.2732	81.46	-6.50624245141584	0.582323665664153	7.08856611708	4.97467678794663	-266196.294117344	-266190.568093393	-266189.97572445	-266217.817064795	33.766	COC1COCC=CC1	CO[C@H]1COCC=CC1	InChI=1S/C7H12O2/c1-8-7-4-2-3-5-9-6-7/h2-3,7H,4-6H2,1H3	InChI=1S/C7H12O2/c1-8-7-4-2-3-5-9-6-7/h2-3,7H,4-6H2,1H3/t7-/m1/s1
104046	C1	C7 O2 H12	2.2585	77.99	-6.52529042178803	1.86942223509941	8.39471265688744	4.95293489033608	-266181.084542712	-266175.436329936	-266174.843333483	-266202.119287792	34.297	CC1(CO)CC2COC12	C[C@@]1(CO)C[C@H]2CO[C@@H]12	InChI=1S/C7H12O2/c1-7(4-8)2-5-3-9-6(5)7/h5-6,8H,2-4H2,1H3	InChI=1S/C7H12O2/c1-7(4-8)2-5-3-9-6(5)7/h5-6,8H,2-4H2,1H3/t5-,6+,7-/m0/s1
19339	C1	N2 C5 O1 H4	4.9489	59.45	-6.82733680911851	-0.451709011683409	6.3756277974351	2.27321199560363	-236833.761620337	-236829.935067564	-236829.34269862	-236852.695463697	23.457	N#CC12OC1C1NC21	N#C[C@]12O[C@H]1[C@H]1N[C@@H]21	InChI=1S/C5H4N2O/c6-1-5-3-2(7-3)4(5)8-5/h2-4,7H	InChI=1S/C5H4N2O/c6-1-5-3-2(7-3)4(5)8-5/h2-4,7H/t2-,3+,4-,5+/m0/s1
111489	C1	C8 O1 H14	1.1482	84.19	-7.0667970080832	2.02996941395074	9.09676642203394	5.64320612523807	-243653.363901877	-243647.718826648	-243647.126457705	-243674.200353963	35.581	CC1CC2CC2C1CO	C[C@H]1C[C@H]2C[C@H]2[C@H]1CO	InChI=1S/C8H14O/c1-5-2-6-3-7(6)8(5)4-9/h5-9H,2-4H2,1H3	InChI=1S/C8H14O/c1-5-2-6-3-7(6)8(5)4-9/h5-9H,2-4H2,1H3/t5-,6-,7+,8-/m0/s1
121792	Cs	C7 O1 N1 H13	3.5245	83.06	-7.45047755415164	1.1755318858267	8.62600943997834	5.22230040278512	-253744.850154431	-253737.857816361	-253737.265447418	-253767.828296352	39.76	CC(C)(CCCO)C#N	CC(C)(CCCO)C#N	InChI=1S/C7H13NO/c1-7(2,6-8)4-3-5-9/h9H,3-5H2,1-2H3	InChI=1S/C7H13NO/c1-7(2,6-8)4-3-5-9/h9H,3-5H2,1-2H3
63584	C1	C8 O1 H14	1.5374	85.7	-6.62325141227359	2.25310278116785	8.87635419344144	5.59857945179465	-243655.416485367	-243649.529191481	-243648.936822537	-243676.939432818	36.027	CC1(C)CC11CCOC1	CC1(C)C[C@]21CCOC2	InChI=1S/C8H14O/c1-7(2)5-8(7)3-4-9-6-8/h3-6H2,1-2H3	InChI=1S/C8H14O/c1-7(2)5-8(7)3-4-9-6-8/h3-6H2,1-2H3/t8-/m1/s1
113837	C1	C7 O2 H12	2.1166	80.6	-6.45181967892387	2.23949708804485	8.69131676696872	4.91775056792002	-266173.646045406	-266167.525317996	-266166.932949053	-266195.846075579	35.935	COC1CC1C1CC1O	CO[C@H]1C[C@H]1[C@H]1C[C@H]1O	InChI=1S/C7H12O2/c1-9-7-3-5(7)4-2-6(4)8/h4-8H,2-3H2,1H3	InChI=1S/C7H12O2/c1-9-7-3-5(7)4-2-6(4)8/h4-8H,2-3H2,1H3/t4-,5+,6-,7+/m1/s1
61490	C1	O2 C5 N2 H6	2.577	65.75	-8.51444275636979	-0.492526091052391	8.0219166653174	3.0361920545549	-284859.741135837	-284853.947968373	-284853.355599429	-284881.451708621	32.62	OC(CC(O)C#N)C#N	O[C@@H](C[C@@H](O)C#N)C#N	InChI=1S/C5H6N2O2/c6-2-4(8)1-5(9)3-7/h4-5,8-9H,1H2	InChI=1S/C5H6N2O2/c6-2-4(8)1-5(9)3-7/h4-5,8-9H,1H2/t4-,5+
123062	C1	O3 C6 H12	3.209	76.35	-6.71032784826076	1.93200842346518	8.64233627172594	4.91837642980368	-289481.461991527	-289475.003664019	-289474.411295076	-289504.835464416	35.163	OCCCOC1COC1	OCCCOC1COC1	InChI=1S/C6H12O3/c7-2-1-3-9-6-4-8-5-6/h6-7H,1-5H2	InChI=1S/C6H12O3/c7-2-1-3-9-6-4-8-5-6/h6-7H,1-5H2
25474	C1	O1 C7 N1 H7	1.9908	77.67	-5.63819923016881	-0.808178171505857	4.83002105866295	3.41394051842171	-251477.357220093	-251472.638976358	-251472.046607414	-251497.979063939	27.725	O=CC1CN2C=CC=C12	O=C[C@H]1Cn2cccc12	InChI=1S/C7H7NO/c9-5-6-4-8-3-1-2-7(6)8/h1-3,5-6H,4H2	InChI=1S/C7H7NO/c9-5-6-4-8-3-1-2-7(6)8/h1-3,5-6H,4H2/t6-/m1/s1
79308	C1	C7 N2 H8	4.9369	78.37	-7.18652710756555	0.0217691089967908	7.20829621656235	3.73345661572211	-238967.847923017	-238963.100813845	-238962.508444902	-238987.929481206	29.192	CC1C2N3CC1C23C#N	C[C@H]1[C@H]2N3C[C@@H]1[C@@]23C#N	InChI=1S/C7H8N2/c1-4-5-2-9-6(4)7(5,9)3-8/h4-6H,2H2,1H3	InChI=1S/C7H8N2/c1-4-5-2-9-6(4)7(5,9)3-8/h4-6H,2H2,1H3/t4-,5+,6-,7+,9?/m1/s1
15985	C1	C7 O1 H12	1.7961	75	-6.91713438373027	2.05445966157213	8.9715940453024	4.80354437984561	-218988.072398253	-218982.858422033	-218982.266053089	-219008.665376663	31.259	CCC1CCC11CO1	CC[C@H]1CC[C@]21CO2	InChI=1S/C7H12O/c1-2-6-3-4-7(6)5-8-7/h6H,2-5H2,1H3	InChI=1S/C7H12O/c1-2-6-3-4-7(6)5-8-7/h6H,2-5H2,1H3/t6-,7+/m0/s1
94571	C1	C7 O2 H12	0.4333	77.8	-6.69672215513776	1.90207589859459	8.59879805373235	4.96332963988205	-266178.265142645	-266172.50837073	-266171.916001786	-266200.573731957	32.728	CC1OCC1C1COC1	C[C@H]1OC[C@H]1C1COC1	InChI=1S/C7H12O2/c1-5-7(4-9-5)6-2-8-3-6/h5-7H,2-4H2,1H3	InChI=1S/C7H12O2/c1-5-7(4-9-5)6-2-8-3-6/h5-7H,2-4H2,1H3/t5-,7-/m1/s1
94779	C1	O2 C6 N1 H9	1.6268	73.26	-7.03686448321262	-1.02314812284917	6.01371636036345	4.03719010899983	-275527.360624171	-275522.296622716	-275521.703626263	-275548.040198889	30.909	OC1CCC2(NC12)C=O	O[C@H]1CC[C@]2(N[C@@H]12)C=O	InChI=1S/C6H9NO2/c8-3-6-2-1-4(9)5(6)7-6/h3-5,7,9H,1-2H2	InChI=1S/C6H9NO2/c8-3-6-2-1-4(9)5(6)7-6/h3-5,7,9H,1-2H2/t4-,5-,6-/m0/s1
46512	C1	O2 C6 N1 H9	4.04	71.5	-7.02325879008962	0.334700050825658	7.35795884091528	4.07313635023078	-275539.008455029	-275534.126431321	-275533.533434868	-275559.666066915	29.837	O=C1CCC2(CN2)CO1	O=C1CC[C@]2(CN2)CO1	InChI=1S/C6H9NO2/c8-5-1-2-6(3-7-6)4-9-5/h7H,1-4H2	InChI=1S/C6H9NO2/c8-5-1-2-6(3-7-6)4-9-5/h7H,1-4H2/t6-/m0/s1
116641	C1	C7 O1 N1 H11	3.1061	86.6	-6.73209695725755	0.416334209563624	7.14843116682117	4.51972962129995	-252952.694744563	-252945.767039969	-252945.174671026	-252975.844196571	39.19	COC=NC(C)(C)C#C	COC=NC(C)(C)C#C	InChI=1S/C7H11NO/c1-5-7(2,3)8-6-9-4/h1,6H,2-4H3	InChI=1S/C7H11NO/c1-5-7(2,3)8-6-9-4/h1,6H,2-4H3
28950	C1	C7 N1 O1 H9	1.1101	79.92	-5.56472848730464	-1.05852292496895	4.50620556233569	3.99444102120739	-252254.4203996	-252248.791012109	-252248.198643165	-252276.345580624	32.173	CC1=CC=CN1CC=O	Cc1cccn1CC=O	InChI=1S/C7H9NO/c1-7-3-2-4-8(7)5-6-9/h2-4,6H,5H2,1H3	InChI=1S/C7H9NO/c1-7-3-2-4-8(7)5-6-9/h2-4,6H,5H2,1H3
62779	C1	C8 O1 H10	1.7338	81.6	-6.38651235193349	0.527900893172176	6.91441324510567	4.26228269602665	-242100.675794577	-242095.02883682	-242094.435840367	-242121.462673415	34.739	CC1(C)C2OC(C#C)C12	CC1(C)[C@H]2O[C@@H](C#C)[C@@H]12	InChI=1S/C8H10O/c1-4-5-6-7(9-5)8(6,2)3/h1,5-7H,2-3H3	InChI=1S/C8H10O/c1-4-5-6-7(9-5)8(6,2)3/h1,5-7H,2-3H3/t5-,6+,7-/m0/s1
57533	C1	C7 O2 H14	2.5305	82.12	-6.6096457191506	1.77418238323845	8.38382810238905	5.51329896729972	-266945.386689554	-266938.849923363	-266938.257554419	-266967.813250648	38.443	CC(C)(C)OC1COC1	CC(C)(C)OC1COC1	InChI=1S/C7H14O2/c1-7(2,3)9-6-4-8-5-6/h6H,4-5H2,1-3H3	InChI=1S/C7H14O2/c1-7(2,3)9-6-4-8-5-6/h6H,4-5H2,1-3H3
58344	Cs	C5 N2 O2 H10	1.5907	73.58	-7.3198629001709	-0.419055348188222	6.90080755198267	4.30378006005178	-286409.833236443	-286403.581359552	-286402.988990609	-286431.96863314	36.085	CC(C)N(C=O)C(N)=O	CC(C)N(C=O)C(=O)N	InChI=1S/C5H10N2O2/c1-4(2)7(3-8)5(6)9/h3-4H,1-2H3,(H2,6,9)	InChI=1S/C5H10N2O2/c1-4(2)7(3-8)5(6)9/h3-4H,1-2H3,(H2,6,9)
54793	C1	N2 C6 O1 H10	3.3891	75.84	-6.26950339107574	1.36056931229942	7.63007270337516	4.41678894713137	-263068.120483552	-263063.286778073	-263062.69440913	-263088.365194204	30.703	NC(=O)N1C2CC1CC2	NC(=O)N1[C@H]2C[C@@H]1CC2	InChI=1S/C6H10N2O/c7-6(9)8-4-1-2-5(8)3-4/h4-5H,1-3H2,(H2,7,9)	InChI=1S/C6H10N2O/c7-6(9)8-4-1-2-5(8)3-4/h4-5H,1-3H2,(H2,7,9)/t4-,5+
78790	C1	C6 N2 O1 H8	1.6575	72.77	-6.94978804722545	0.44898787305881	7.39877592028426	3.69304770714682	-262266.041011352	-262261.10439432	-262260.512025376	-262286.092449086	30.81	CC1C2C3N2C(=N)C13O	C[C@H]1[C@@H]2[C@H]3N2[C]([NH])[C@@]13O	InChI=1S/C6H8N2O/c1-2-3-4-6(2,9)5(7)8(3)4/h2-4,7,9H,1H3	InChI=1S/C6H8N2O/c1-2-3-4-6(2,9)5(7)8(3)4/h2-4,7,9H,1H3/t2-,3+,4+,6+,8?/m0/s1
21791	C1	O2 C5 N1 H5	2.116	61.31	-6.95523032447465	-1.1809741630759	5.77425616139875	2.58521775030013	-250126.525732901	-250122.095516014	-250121.503147071	-250147.161381955	24.251	O=CCC1=CC=NO1	O=CCc1ccno1	InChI=1S/C5H5NO2/c7-4-2-5-1-3-6-8-5/h1,3-4H,2H2	InChI=1S/C5H5NO2/c7-4-2-5-1-3-6-8-5/h1,3-4H,2H2
104811	C1	O3 C5 N1 H9	1.4966	67.23	-6.89536527473348	0.342863466699455	7.23822874143293	4.03457781592022	-298836.60980193	-298831.225770643	-298830.633401699	-298857.613171537	31.984	OCC1(CO)CN=CO1	OCC1(CO)CN=CO1	InChI=1S/C5H9NO3/c7-2-5(3-8)1-6-4-9-5/h4,7-8H,1-3H2	InChI=1S/C5H9NO3/c7-2-5(3-8)1-6-4-9-5/h4,7-8H,1-3H2
62485	Cs	C6 O2 N1 H9	2.0838	72.07	-6.63141482814739	-0.938792825486602	5.69262200266079	3.98921643504816	-275575.87463663	-275570.082096675	-275569.489727731	-275597.475395256	33.593	CC1(C)C(=O)CNC1=O	CC1(C)C(=O)CNC1=O	InChI=1S/C6H9NO2/c1-6(2)4(8)3-7-5(6)9/h3H2,1-2H3,(H,7,9)	InChI=1S/C6H9NO2/c1-6(2)4(8)3-7-5(6)9/h3H2,1-2H3,(H,7,9)
75471	C1	C8 O1 H12	1.6067	85.64	-6.11984076672281	0.674842378900514	6.79468314562332	4.96303031463334	-242900.754766574	-242895.12788912	-242894.535520177	-242922.123974204	33.645	CC1=CCOC1C1CC1	CC1=CCO[C@H]1C1CC1	InChI=1S/C8H12O/c1-6-4-5-9-8(6)7-2-3-7/h4,7-8H,2-3,5H2,1H3	InChI=1S/C8H12O/c1-6-4-5-9-8(6)7-2-3-7/h4,7-8H,2-3,5H2,1H3/t8-/m1/s1
124120	C1	C5 N4 H6	5.4416	81.84	-5.61643012117202	0.250344753463094	5.86677487463511	3.08095478492955	-259140.634694341	-259135.05237006	-259134.460001116	-259162.492104342	31.297	CC#CC1=C(N)NN=N1	CC#Cc1c(N)[nH]nn1	InChI=1S/C5H6N4/c1-2-3-4-5(6)8-9-7-4/h1H3,(H3,6,7,8,9)	InChI=1S/C5H6N4/c1-2-3-4-5(6)8-9-7-4/h1H3,(H3,6,7,8,9)
110125	Cs	O2 C7 H10	0.9251	77.6	-6.97972057209604	0.859879805373236	7.83960037746928	4.2812490322401	-265414.99148383	-265408.707603957	-265408.115235013	-265437.213476835	36.506	OCC1C(CO)C1C#C	OC[C@H]1[C@@H](CO)[C@H]1C#C	InChI=1S/C7H10O2/c1-2-5-6(3-8)7(5)4-9/h1,5-9H,3-4H2	InChI=1S/C7H10O2/c1-2-5-6(3-8)7(5)4-9/h1,5-9H,3-4H2/t5-,6+,7-
128486	C1	C5 O1 N3 H9	4.7344	75.72	-5.97562041961907	0.4707569820556	6.44637740167467	3.99506688309104	-273129.693986987	-273123.630990448	-273123.038621505	-273151.94233539	33.05	COC1=C(C)N=NN1C	COc1c(C)nnn1C	InChI=1S/C5H9N3O/c1-4-5(9-3)8(2)7-6-4/h1-3H3	InChI=1S/C5H9N3O/c1-4-5(9-3)8(2)7-6-4/h1-3H3
123233	C1	C6 O2 N1 H13	3.9384	82.07	-6.80828883874631	0.878927775745428	7.68721661449174	5.23835512067026	-277047.17915771	-277040.145404015	-277039.553035072	-277071.786314226	37.589	COCCCCNC=O	COCCCCNC=O	InChI=1S/C6H13NO2/c1-9-5-3-2-4-7-6-8/h6H,2-5H2,1H3,(H,7,8)	InChI=1S/C6H13NO2/c1-9-5-3-2-4-7-6-8/h6H,2-5H2,1H3,(H,7,8)