dsgdb9 ID	symmetry point group	composition	mu / D	alpha / bohr^3	E(HOMO) / eV	E(LUMO) / eV	chemical hardness / eV	zpve / eV	U(0K) / kcal.mol-1	U(298.15K) / kcal.mol-1	H(298.15K) / kcal.mol-1	G(298.15K) / kcal.mol-1	Cv(298.15K) / cal.mol-1.K-1	SMILES BASIC	SMILES STEREO	InChi1	InChi2
116740	Cs	C5 N2 O2 H8	1.2297	79.01	-6.96611487897305	-2.50072639600634	4.46538848296671	3.65040746489935	-285632.877361056	-285626.847622519	-285626.255253576	-285655.145789762	33.286	CCN=CNC(=O)C=O	CCN=CNC(=O)C=O	InChI=1S/C5H8N2O2/c1-2-6-4-7-5(9)3-8/h3-4H,2H2,1H3,(H,6,7,9)	InChI=1S/C5H8N2O2/c1-2-6-4-7-5(9)3-8/h3-4H,2H2,1H3,(H,6,7,9)
90796	C1	C7 N1 O1 H9	2.9536	75.47	-5.44227724919769	-0.0462593566181804	5.39601789257951	4.05514962392218	-252215.615213724	-252210.989841391	-252210.397472447	-252235.531736922	29.084	CN1CC2C3C2C(=O)C13	CN1C[C@@H]2[C@H]3[C@@H]2C(=O)[C@@H]13	InChI=1S/C7H9NO/c1-8-2-3-4-5(3)7(9)6(4)8/h3-6H,2H2,1H3	InChI=1S/C7H9NO/c1-8-2-3-4-5(3)7(9)6(4)8/h3-6H,2H2,1H3/t3-,4+,5-,6+/m1/s1
13702	C1	C7 N1 H11	1.5323	83.09	-5.94568789474848	1.08301317259034	7.02870106733882	4.46193263691347	-205743.383041515	-205737.503277743	-205736.9109088	-205765.529733383	32.921	CCC#CC1CN1C	CCC#C[C@H]1CN1C	InChI=1S/C7H11N/c1-3-4-5-7-6-8(7)2/h7H,3,6H2,1-2H3	InChI=1S/C7H11N/c1-3-4-5-7-6-8(7)2/h7H,3,6H2,1-2H3/t7-,8?/m0/s1
31948	Cs	C8 N1 H13	1.7645	91.87	-5.05587556450466	1.26532946043846	6.32120502494312	5.29705008080285	-230464.551126257	-230458.325604765	-230457.733235822	-230487.022240524	36.402	CCC1=CC=C(CC)N1	CCc1ccc(CC)[nH]1	InChI=1S/C8H13N/c1-3-7-5-6-8(4-2)9-7/h5-6,9H,3-4H2,1-2H3	InChI=1S/C8H13N/c1-3-7-5-6-8(4-2)9-7/h5-6,9H,3-4H2,1-2H3
128644	Cs	C4 O2 N3 H5	2.3241	68.31	-6.56882863978162	-1.58642381814113	4.98240482164049	2.79855501846868	-294951.918276322	-294947.158616961	-294946.565620508	-294972.23891562	27.439	COC1=NC=NNC1=O	COc1ncn[nH]c1=O	InChI=1S/C4H5N3O2/c1-9-4-3(8)7-6-2-5-4/h2H,1H3,(H,7,8)	InChI=1S/C4H5N3O2/c1-9-4-3(8)7-6-2-5-4/h2H,1H3,(H,7,8)
10850	C1	C5 N1 O2 H9	2.3441	66.07	-6.57427091703081	0.816341587379654	7.39061250441047	3.87884705243443	-251642.245374555	-251637.230318838	-251636.637949895	-251662.460592262	29.388	CC1=NCC(O)CO1	CC1=NC[C@@H](O)CO1	InChI=1S/C5H9NO2/c1-4-6-2-5(7)3-8-4/h5,7H,2-3H2,1H3	InChI=1S/C5H9NO2/c1-4-6-2-5(7)3-8-4/h5,7H,2-3H2,1H3/t5-/m1/s1
73980	C1	C8 N1 H11	1.1179	87.3	-5.37696992220732	-0.993215597978579	4.38375432422874	4.62038453902386	-229607.002954098	-229601.778937726	-229601.185941273	-229627.289707885	32.785	CC1=C2CC3(C)C2N3C1	C[C]1[C]2C[C@]3(C)[C@H]2N3C1	InChI=1S/C8H11N/c1-5-4-9-7-6(5)3-8(7,9)2/h7H,3-4H2,1-2H3	InChI=1S/C8H11N/c1-5-4-9-7-6(5)3-8(7,9)2/h7H,3-4H2,1-2H3/t7-,8+,9?/m0/s1
97006	C1	C7 N1 O1 H11	2.3692	81.71	-6.66134735301798	0.897975746117619	7.5593230991356	4.69600498140146	-252988.545615835	-252983.246925836	-252982.654556893	-253009.715275452	31.351	CN=C1OC2CCCC12	CN=C1O[C@H]2CCC[C@@H]12	InChI=1S/C7H11NO/c1-8-7-5-3-2-4-6(5)9-7/h5-6H,2-4H2,1H3	InChI=1S/C7H11NO/c1-8-7-5-3-2-4-6(5)9-7/h5-6H,2-4H2,1H3/t5-,6+/m1/s1
90868	C1	C8 O1 H12	1.689	80.22	-6.1443310143442	2.19323773142667	8.33756874577087	5.04161679811176	-242886.45382566	-242881.799587891	-242881.207218948	-242906.162015712	30.77	CC1CC2C3OC(C1)C23	C[C@H]1C[C@H]2[C@H]3O[C@@H](C1)[C@@H]23	InChI=1S/C8H12O/c1-4-2-5-7-6(3-4)9-8(5)7/h4-8H,2-3H2,1H3	InChI=1S/C8H12O/c1-4-2-5-7-6(3-4)9-8(5)7/h4-8H,2-3H2,1H3/t4-,5+,6-,7+,8+/m0/s1
29531	C1	N1 C6 O2 H7	1.1221	71.87	-5.03138531688327	0.805457032881259	5.83684234976453	3.4438730432923	-274777.920411712	-274773.121846764	-274772.529477821	-274798.119941683	28.997	NC1=COC2=C1OCC2	Nc1coc2c1OCC2	InChI=1S/C6H7NO2/c7-4-3-9-5-1-2-8-6(4)5/h3H,1-2,7H2	InChI=1S/C6H7NO2/c7-4-3-9-5-1-2-8-6(4)5/h3H,1-2,7H2
93186	C1	C5 N1 O3 H7	6.8925	66.93	-7.00421081971743	-1.30886767843205	5.69534314128539	3.39508302775324	-298122.876133565	-298117.696042856	-298117.103673913	-298143.669287497	30.365	CC1CNC(=O)C(=O)O1	C[C@H]1CNC(=O)C(=O)O1	InChI=1S/C5H7NO3/c1-3-2-6-4(7)5(8)9-3/h3H,2H2,1H3,(H,6,7)	InChI=1S/C5H7NO3/c1-3-2-6-4(7)5(8)9-3/h3H,2H2,1H3,(H,6,7)/t3-/m0/s1
26766	Cs	C6 N2 O1 H6	5.645	78.91	-6.81100997737091	-1.53744332289835	5.27356665447257	3.0497433249054	-261588.172646977	-261582.757867725	-261582.165498781	-261609.327246366	30.185	CC1=C(C)N=C(O1)C#N	Cc1c(C)nc(o1)C#N	InChI=1S/C6H6N2O/c1-4-5(2)9-6(3-7)8-4/h1-2H3	InChI=1S/C6H6N2O/c1-4-5(2)9-6(3-7)8-4/h1-2H3
30355	C1	O2 C7 H8	1.3622	73.73	-6.09535051910142	0.18775856509732	6.28310908419874	3.76681777525969	-264717.941409851	-264713.317920047	-264712.724923594	-264737.942646828	28.809	OC1CCC2=COC=C12	O[C@H]1CCc2cocc12	InChI=1S/C7H8O2/c8-7-2-1-5-3-9-4-6(5)7/h3-4,7-8H,1-2H2	InChI=1S/C7H8O2/c8-7-2-1-5-3-9-4-6(5)7/h3-4,7-8H,1-2H2/t7-/m0/s1
103234	C1	C8 N1 H13	1.6685	85.21	-5.85861145876132	1.75241327424166	7.61102473300297	5.27566193121351	-230368.246619764	-230362.752774318	-230362.160405375	-230388.891053951	34.955	CCC1(C)C2C3CN3C12	CC[C@@]1(C)[C@H]2[C@H]3CN3[C@@H]12	InChI=1S/C8H13N/c1-3-8(2)6-5-4-9(5)7(6)8/h5-7H,3-4H2,1-2H3	InChI=1S/C8H13N/c1-3-8(2)6-5-4-9(5)7(6)8/h5-7H,3-4H2,1-2H3/t5-,6+,7-,8+,9?/m1/s1
41889	C1	C7 O1 N1 H11	2.3336	77.06	-6.50624245141584	0.789130201133666	7.29537265254951	4.78629236096565	-252998.076857237	-252993.566946647	-252992.974577703	-253017.97392764	28.957	C1CC2CCC1OC=N2	C1C[C@H]2CC[C@@H]1OC=N2	InChI=1S/C7H11NO/c1-3-7-4-2-6(1)8-5-9-7/h5-7H,1-4H2	InChI=1S/C7H11NO/c1-3-7-4-2-6(1)8-5-9-7/h5-7H,1-4H2/t6-,7+
72439	C1	C7 O2 H10	2.7395	72.89	-6.80284656149712	2.34290035577961	9.14574691727672	4.3789379088632	-265449.094113708	-265444.643816518	-265444.051447574	-265468.548789932	29.444	CC12CCC(O1)C1OC21	C[C@@]12CC[C@@H](O1)[C@H]1O[C@@H]21	InChI=1S/C7H10O2/c1-7-3-2-4(9-7)5-6(7)8-5/h4-6H,2-3H2,1H3	InChI=1S/C7H10O2/c1-7-3-2-4(9-7)5-6(7)8-5/h4-6H,2-3H2,1H3/t4-,5-,6-,7+/m1/s1
125845	C1	C6 N3 H9	3.9264	77.63	-6.82189453186931	0.576881388414955	7.39877592028426	4.06695936555294	-249828.028261222	-249822.950454558	-249822.358085614	-249848.64696752	29.996	CC1C(C)C2=NC=NN12	C[C@H]1[C@@H](C)c2ncnn12	InChI=1S/C6H9N3/c1-4-5(2)9-6(4)7-3-8-9/h3-5H,1-2H3	InChI=1S/C6H9N3/c1-4-5(2)9-6(4)7-3-8-9/h3-5H,1-2H3/t4-,5+/m1/s1
24191	Cs	C7 N2 H8	3.5381	78.23	-5.13750972324262	0.99049445935398	6.1280041825966	3.83022030521284	-238989.936884013	-238985.974789194	-238985.381792741	-239009.485686659	25.977	C1C2CC1C1=C2NC=N1	C1[C@H]2C[C@@H]1c1c2[nH]cn1	InChI=1S/C7H8N2/c1-4-2-5(1)7-6(4)8-3-9-7/h3-5H,1-2H2,(H,8,9)	InChI=1S/C7H8N2/c1-4-2-5(1)7-6(4)8-3-9-7/h3-5H,1-2H2,(H,8,9)/t4-,5+
105615	C1	C7 O1 N1 H11	3.4177	79.2	-7.58925562400618	0.658515547152921	8.2477711711591	4.64027606236968	-252983.647276881	-252977.653933894	-252977.06156495	-253005.079235458	35.449	CC1CCC1(CO)C#N	C[C@H]1CC[C@]1(CO)C#N	InChI=1S/C7H11NO/c1-6-2-3-7(6,4-8)5-9/h6,9H,2-3,5H2,1H3	InChI=1S/C7H11NO/c1-6-2-3-7(6,4-8)5-9/h6,9H,2-3,5H2,1H3/t6-,7+/m0/s1
111690	C1	C7 N1 O1 H13	0.6399	82.5	-5.92663992437629	2.27759302878923	8.20423295316552	5.29402961692955	-253719.567170211	-253713.928997587	-253713.336628643	-253740.5561071	34.451	CCN1C2COC(C)C12	CCN1[C@H]2CO[C@@H](C)[C@@H]12	InChI=1S/C7H13NO/c1-3-8-6-4-9-5(2)7(6)8/h5-7H,3-4H2,1-2H3	InChI=1S/C7H13NO/c1-3-8-6-4-9-5(2)7(6)8/h5-7H,3-4H2,1-2H3/t5-,6-,7+,8?/m0/s1
119587	C1	O2 C6 N1 H11	1.4708	75.08	-6.38107007468429	1.8939124827208	8.27498255740509	4.64740544556612	-276250.534545065	-276244.754555299	-276244.162186356	-276272.120243463	34.473	OCCC12NC1CC2O	OCC[C@]12N[C@H]1C[C@H]2O	InChI=1S/C6H11NO2/c8-2-1-6-4(7-6)3-5(6)9/h4-5,7-9H,1-3H2	InChI=1S/C6H11NO2/c8-2-1-6-4(7-6)3-5(6)9/h4-5,7-9H,1-3H2/t4-,5+,6-/m0/s1
21452	Cs	N5 C3 H5	4.4329	62.61	-6.22596517308216	-0.296604110081274	5.92936106300089	2.7143629894236	-245353.970424931	-245349.928636409	-245349.336267465	-245373.273871372	23.724	N=CNC1=NC=NN1	N=CNc1ncn[nH]1	InChI=1S/C3H5N5/c4-1-5-3-6-2-7-8-3/h1-2H,(H3,4,5,6,7,8)	InChI=1S/C3H5N5/c4-1-5-3-6-2-7-8-3/h1-2H,(H3,4,5,6,7,8)
55470	C1	N1 C5 O3 H9	3.7941	68.66	-6.593318887403	0.82450500325345	7.41782389065646	4.047938606567	-298852.576780498	-298847.244204987	-298846.651836044	-298873.739537511	31.776	NC(=O)C1COCCO1	NC(=O)[C@H]1COCCO1	InChI=1S/C5H9NO3/c6-5(7)4-3-8-1-2-9-4/h4H,1-3H2,(H2,6,7)	InChI=1S/C5H9NO3/c6-5(7)4-3-8-1-2-9-4/h4H,1-3H2,(H2,6,7)/t4-/m1/s1
82513	C1	C9 H14	0.2186	88.46	-6.28855136144793	2.1224881271871	8.41103948863503	5.64462111732286	-220342.254786037	-220336.927858111	-220336.334861658	-220362.591113072	34.669	CC1C2CC3(C)CC3C12	C[C@H]1[C@H]2C[C@@]3(C)C[C@H]3[C@@H]12	InChI=1S/C9H14/c1-5-6-3-9(2)4-7(9)8(5)6/h5-8H,3-4H2,1-2H3	InChI=1S/C9H14/c1-5-6-3-9(2)4-7(9)8(5)6/h5-8H,3-4H2,1-2H3/t5-,6+,7-,8-,9-/m0/s1
74709	C1	C8 O1 H12	1.1516	84.42	-6.20419606408537	0.51973747729838	6.72393354138375	5.01032370392887	-242895.484314502	-242890.462356181	-242889.869987237	-242915.633643714	32.221	CC1=CC2CC(C2)OC1	CC1=C[C@@H]2C[C@@H](C2)OC1	InChI=1S/C8H12O/c1-6-2-7-3-8(4-7)9-5-6/h2,7-8H,3-5H2,1H3	InChI=1S/C8H12O/c1-6-2-7-3-8(4-7)9-5-6/h2,7-8H,3-5H2,1H3/t7-,8+
51627	C1	N1 C6 O2 H9	4.8119	74.62	-6.70760670963616	0.680284656149712	7.38789136578587	4.04361199615389	-275510.333782102	-275505.431678091	-275504.839309147	-275531.874299818	29.231	N=COC1CC2CC1O2	[NH][CH]O[C@H]1C[C@@H]2C[C@H]1O2	InChI=1S/C6H9NO2/c7-3-8-5-1-4-2-6(5)9-4/h3-7H,1-2H2	InChI=1S/C6H9NO2/c7-3-8-5-1-4-2-6(5)9-4/h3-7H,1-2H2/t4-,5+,6-/m1/s1
84674	C1	O1 C7 N1 H9	2.8701	75.15	-6.25861883657735	-0.035374802119785	6.22324403445756	4.08837472652854	-252194.846532661	-252190.43388604	-252189.841517096	-252214.356429719	28.81	OC1C=CC2CN3C2C13	O[C@H]1C=C[C@H]2CN3[C@H]2[C@H]13	InChI=1S/C7H9NO/c9-5-2-1-4-3-8-6(4)7(5)8/h1-2,4-7,9H,3H2	InChI=1S/C7H9NO/c9-5-2-1-4-3-8-6(4)7(5)8/h1-2,4-7,9H,3H2/t4-,5-,6+,7-,8?/m0/s1
63779	C1	C7 N1 O1 H11	3.8022	79.05	-6.58243433290461	0.829947280502648	7.41238161340726	4.64786803913231	-252990.672872952	-252985.260603738	-252984.668234795	-253011.326092272	33.703	CC1(C)CC2C1NC2=O	CC1(C)C[C@@H]2[C@H]1NC2=O	InChI=1S/C7H11NO/c1-7(2)3-4-5(7)8-6(4)9/h4-5H,3H2,1-2H3,(H,8,9)	InChI=1S/C7H11NO/c1-7(2)3-4-5(7)8-6(4)9/h4-5H,3H2,1-2H3,(H,8,9)/t4-,5-/m1/s1
24697	C1	C7 N1 O1 H7	1.1887	78.32	-5.93752447887468	-0.546948863544368	5.39057561533032	3.49244536774139	-251518.062504657	-251513.922824656	-251513.330455713	-251537.728024064	25.786	C1CC2=NC=CC=C2O1	C1Cc2ncccc2O1	InChI=1S/C7H7NO/c1-2-7-6(8-4-1)3-5-9-7/h1-2,4H,3,5H2	InChI=1S/C7H7NO/c1-2-7-6(8-4-1)3-5-9-7/h1-2,4H,3,5H2
39347	C1	C7 O1 N1 H11	1.202	77.44	-6.38651235193349	1.86125881922561	8.2477711711591	4.75412850242289	-252972.48011828	-252967.896789082	-252967.303792629	-252992.369031061	29.326	C1CC2COCC22NC12	C1C[C@@H]2COC[C@]32N[C@@H]13	InChI=1S/C7H11NO/c1-2-6-7(8-6)4-9-3-5(1)7/h5-6,8H,1-4H2	InChI=1S/C7H11NO/c1-2-6-7(8-6)4-9-3-5(1)7/h5-6,8H,1-4H2/t5-,6+,7-/m1/s1
64232	C1	C7 O2 H10	2.9712	77.91	-6.67495304614097	1.4204343620406	8.09538740818157	4.23795571672274	-265418.715125049	-265412.547334429	-265411.954965485	-265440.57253505	36.29	CC1(O)COC1CC#C	C[C@@]1(O)CO[C@H]1CC#C	InChI=1S/C7H10O2/c1-3-4-6-7(2,8)5-9-6/h1,6,8H,4-5H2,2H3	InChI=1S/C7H10O2/c1-3-4-6-7(2,8)5-9-6/h1,6,8H,4-5H2,2H3/t6-,7+/m0/s1
42608	C1	N1 C6 O2 H5	4.5249	66.9	-6.96339374034845	-0.680284656149712	6.28310908419874	2.78530307336689	-274022.689541827	-274018.697326553	-274018.10495761	-274042.053229178	25.35	N=C1OC2C3C2C(=O)C13	[NH][C]1O[C@@H]2[C@H]3[C@@H]2C(=O)[C@@H]13	InChI=1S/C6H5NO2/c7-6-3-1-2(4(3)8)5(1)9-6/h1-3,5,7H	InChI=1S/C6H5NO2/c7-6-3-1-2(4(3)8)5(1)9-6/h1-3,5,7H/t1-,2+,3-,5+/m0/s1
4934	C1	C5 O2 N1 H7	1.2038	64.82	-4.88172269253033	1.30070426255825	6.18242695508858	3.23875361377004	-250883.986771457	-250879.096590126	-250878.503593673	-250904.026914021	28.688	COC1=COC(N)=C1	COc1coc(N)c1	InChI=1S/C5H7NO2/c1-7-4-2-5(6)8-3-4/h2-3H,6H2,1H3	InChI=1S/C5H7NO2/c1-7-4-2-5(6)8-3-4/h2-3H,6H2,1H3
93669	C1	C9 H18	0.1247	94.43	-7.72803369386072	1.92112386896679	9.64915756282751	6.86314699341823	-221879.02235047	-221872.540177603	-221871.947808659	-221900.431091196	41.213	CC1CCC(C)(C)C1C	C[C@H]1CCC(C)(C)[C@H]1C	InChI=1S/C9H18/c1-7-5-6-9(3,4)8(7)2/h7-8H,5-6H2,1-4H3	InChI=1S/C9H18/c1-7-5-6-9(3,4)8(7)2/h7-8H,5-6H2,1-4H3/t7-,8-/m0/s1
7254	C1	C6 O2 H10	2.2385	69.52	-6.77019289800193	-1.1700896085775	5.60010328942443	4.08674204335378	-241575.611007212	-241569.613271659	-241569.020275206	-241597.815429952	32.856	CC(C)C(=O)CC=O	CC(C)C(=O)CC=O	InChI=1S/C6H10O2/c1-5(2)6(8)3-4-7/h4-5H,3H2,1-2H3	InChI=1S/C6H10O2/c1-5(2)6(8)3-4-7/h4-5H,3H2,1-2H3
101277	C1	C7 O1 N1 H11	5.4667	80.21	-7.45864097002544	0.838110696376445	8.29675166640188	4.61437082266349	-252982.797629053	-252976.534456992	-252975.942088049	-253005.006444359	36.164	CCC(O)C1CC1C#N	CC[C@@H](O)[C@H]1C[C@H]1C#N	InChI=1S/C7H11NO/c1-2-7(9)6-3-5(6)4-8/h5-7,9H,2-3H2,1H3	InChI=1S/C7H11NO/c1-2-7(9)6-3-5(6)4-8/h5-7,9H,2-3H2,1H3/t5-,6-,7+/m0/s1
121810	C1	C7 O2 H12	2.5836	82.28	-6.96611487897305	1.09117658846414	8.05729146743719	4.84487847555326	-266180.729999859	-266173.801040246	-266173.208671303	-266203.531811618	39.988	CCOCC(C)(O)C#C	CCOC[C@@](C)(O)C#C	InChI=1S/C7H12O2/c1-4-7(3,8)6-9-5-2/h1,8H,5-6H2,2-3H3	InChI=1S/C7H12O2/c1-4-7(3,8)6-9-5-2/h1,8H,5-6H2,2-3H3/t7-/m0/s1
12310	C2	O2 C4 N2 H6	6.9042	59.59	-6.64229938264579	-0.938792825486602	5.70350655715918	2.9938239261699	-260995.010531486	-260990.667538416	-260990.075169472	-261014.689856102	25.586	O=C1NCCNC1=O	O=C1NCCNC1=O	InChI=1S/C4H6N2O2/c7-3-4(8)6-2-1-5-3/h1-2H2,(H,5,7)(H,6,8)	InChI=1S/C4H6N2O2/c7-3-4(8)6-2-1-5-3/h1-2H2,(H,5,7)(H,6,8)
5012	Cs	O3 C5 H4	3.1518	60.7	-6.07358141010463	-1.40138639166841	4.67219501843622	2.3249680522435	-262638.23947076	-262634.436763347	-262633.844394404	-262657.133781024	23.357	OC1=CC=COC1=O	Oc1cccoc1=O	InChI=1S/C5H4O3/c6-4-2-1-3-8-5(4)7/h1-3,6H	InChI=1S/C5H4O3/c6-4-2-1-3-8-5(4)7/h1-3,6H
116234	C1	C6 O2 N1 H11	1.2907	78.34	-6.8491059181153	0.658515547152921	7.50762146526822	4.62963641034749	-276293.305590817	-276287.19302103	-276286.600652087	-276315.580294618	34.028	CCC1OCOC1=NC	CC[C@H]1OCOC1=NC	InChI=1S/C6H11NO2/c1-3-5-6(7-2)9-4-8-5/h5H,3-4H2,1-2H3	InChI=1S/C6H11NO2/c1-3-5-6(7-2)9-4-8-5/h5H,3-4H2,1-2H3/t5-/m1/s1
82153	C1	O2 C6 N1 H9	4.8442	72.21	-6.44093512442547	-0.345584605324054	6.09535051910142	4.00763854353669	-275503.004471445	-275497.702643899	-275497.110274955	-275524.248804689	31.432	OC1C2NC2C1CC=O	O[C@H]1[C@H]2N[C@H]2[C@H]1CC=O	InChI=1S/C6H9NO2/c8-2-1-3-4-5(7-4)6(3)9/h2-7,9H,1H2	InChI=1S/C6H9NO2/c8-2-1-3-4-5(7-4)6(3)9/h2-7,9H,1H2/t3-,4+,5+,6-/m1/s1
83145	C1	C6 N1 O2 H9	3.5525	72.09	-6.68583760063937	0	6.68583760063937	4.01291755246841	-275541.245526304	-275535.954993928	-275535.362624984	-275561.751280897	31.64	CN1C2COC(=O)C12C	CN1[C@H]2COC(=O)[C@@]12C	InChI=1S/C6H9NO2/c1-6-4(7(6)2)3-9-5(6)8/h4H,3H2,1-2H3	InChI=1S/C6H9NO2/c1-6-4(7(6)2)3-9-5(6)8/h4H,3H2,1-2H3/t4-,6-,7?/m0/s1
89066	C1	C7 N1 O1 H13	1.4558	83.69	-6.07086027148003	2.28847758328763	8.35933785476766	5.25438262716914	-253696.020504706	-253689.925505185	-253689.333136241	-253718.431378063	35.411	CN1CC1CCC1CO1	CN1C[C@H]1CC[C@H]1CO1	InChI=1S/C7H13NO/c1-8-4-6(8)2-3-7-5-9-7/h6-7H,2-5H2,1H3	InChI=1S/C7H13NO/c1-8-4-6(8)2-3-7-5-9-7/h6-7H,2-5H2,1H3/t6-,7+,8?/m1/s1
84129	C1	C7 O1 N1 H11	1.8426	81.72	-6.51168472866504	0.304767525955071	6.81645225462011	4.66522890355725	-252974.064579702	-252968.595207126	-252968.002838183	-252995.03029874	33.755	CC1=CC(O)C2(CN2)C1	CC1=C[C@@H](O)[C@]2(CN2)C1	InChI=1S/C7H11NO/c1-5-2-6(9)7(3-5)4-8-7/h2,6,8-9H,3-4H2,1H3	InChI=1S/C7H11NO/c1-5-2-6(9)7(3-5)4-8-7/h2,6,8-9H,3-4H2,1H3/t6-,7-/m1/s1
119384	C1	C6 O2 N1 H11	1.9548	76.73	-6.68583760063937	2.17691089967908	8.86274850031844	4.64952793369331	-276230.570331147	-276225.040717662	-276224.448348718	-276251.939538777	33.058	COCC12CC(N1)C2O	COC[C@@]12C[C@@H](N1)[C@H]2O	InChI=1S/C6H11NO2/c1-9-3-6-2-4(7-6)5(6)8/h4-5,7-8H,2-3H2,1H3	InChI=1S/C6H11NO2/c1-9-3-6-2-4(7-6)5(6)8/h4-5,7-8H,2-3H2,1H3/t4-,5-,6-/m1/s1
4649	C1	N2 C6 H6	2.79	74.66	-5.17560566398701	0.549670002168967	5.72527566615597	2.94035355219653	-214349.330975589	-214344.549353397	-214343.956984453	-214369.172197649	28.779	NC1=CC(=CN1)C#C	Nc1cc(c[nH]1)C#C	InChI=1S/C6H6N2/c1-2-5-3-6(7)8-4-5/h1,3-4,8H,7H2	InChI=1S/C6H6N2/c1-2-5-3-6(7)8-4-5/h1,3-4,8H,7H2
7209	C1	C7 O1 H10	3.4346	78.9	-6.79196200699872	-1.20546441069729	5.58649759630143	4.08897337702595	-218253.006545316	-218246.644226759	-218246.051857815	-218276.180470194	34.102	CC#CC(=O)C(C)C	CC#CC(=O)C(C)C	InChI=1S/C7H10O/c1-4-5-7(8)6(2)3/h6H,1-3H3	InChI=1S/C7H10O/c1-4-5-7(8)6(2)3/h6H,1-3H3
20121	C1	C7 O1 H12	1.6958	74.83	-7.02325879008962	2.48167842563415	9.50493721572377	4.79380270356954	-218982.343236755	-218976.954812901	-218976.362443957	-219003.290130508	31.799	CC(C1CC1)C1CO1	C[C@@H](C1CC1)[C@H]1CO1	InChI=1S/C7H12O/c1-5(6-2-3-6)7-4-8-7/h5-7H,2-4H2,1H3	InChI=1S/C7H12O/c1-5(6-2-3-6)7-4-8-7/h5-7H,2-4H2,1H3/t5-,7+/m0/s1
85487	C1	N3 C5 O1 H7	3.319	70.4	-7.21373849381154	-0.0979609904855585	7.11577750332598	3.42218556845425	-272395.007149773	-272389.834589178	-272389.242220235	-272415.78336095	30.648	NC1CC(=N)OC1C#N	N[C@H]1C[C]([NH])O[C@H]1C#N	InChI=1S/C5H7N3O/c6-2-4-3(7)1-5(8)9-4/h3-4,8H,1,7H2	InChI=1S/C5H7N3O/c6-2-4-3(7)1-5(8)9-4/h3-4,8H,1,7H2/t3-,4-/m0/s1
18142	C1	O1 C6 N1 H7	4.0648	64.44	-7.41510275203186	0.677563517525113	8.09266626955697	3.2586723485021	-227560.805000845	-227556.367881354	-227555.774884901	-227580.370746247	26.754	OC1C2CC(C#N)C12	O[C@H]1[C@H]2C[C@@H](C#N)[C@@H]12	InChI=1S/C6H7NO/c7-2-3-1-4-5(3)6(4)8/h3-6,8H,1H2	InChI=1S/C6H7NO/c7-2-3-1-4-5(3)6(4)8/h3-6,8H,1H2/t3-,4-,5+,6-/m0/s1
12138	C1	C6 N2 H10	2.5863	72.49	-6.42460829267788	2.09255560231651	8.51716389499439	4.20780550076218	-215811.588065072	-215806.952025078	-215806.359656134	-215831.225346553	28.954	CC12CC3(CN3)C1N2	C[C@]12C[C@]3(CN3)[C@H]1N2	InChI=1S/C6H10N2/c1-5-2-6(3-7-6)4(5)8-5/h4,7-8H,2-3H2,1H3	InChI=1S/C6H10N2/c1-5-2-6(3-7-6)4(5)8-5/h4,7-8H,2-3H2,1H3/t4-,5-,6-/m0/s1
37372	Cs	C6 O2 N1 H9	1.871	69.88	-6.39195462918269	2.09799787956571	8.4899525087484	4.12116444695495	-275511.088675999	-275507.083283026	-275506.490914083	-275530.16559152	26.89	C1OCC2OC1C1NC21	C1OC[C@@H]2O[C@H]1[C@H]1N[C@@H]21	InChI=1S/C6H9NO2/c1-3-5-6(7-5)4(9-3)2-8-1/h3-7H,1-2H2	InChI=1S/C6H9NO2/c1-3-5-6(7-5)4(9-3)2-8-1/h3-7H,1-2H2/t3-,4+,5-,6+
7216	C1	C6 O2 H8	3.2819	69.95	-6.74842378900514	-0.810899310130456	5.93752447887468	3.44044440862531	-240796.777623479	-240790.60732282	-240790.014953877	-240819.983551339	32.661	CC#CC(O)C(C)=O	CC#C[C@@H](O)C(=O)C	InChI=1S/C6H8O2/c1-3-4-6(8)5(2)7/h6,8H,1-2H3	InChI=1S/C6H8O2/c1-3-4-6(8)5(2)7/h6,8H,1-2H3/t6-/m1/s1
53664	C1	C9 H14	0.2464	96.02	-6.47086764929606	1.76874010598925	8.23960775528531	5.54094573572565	-220336.258305503	-220329.254044753	-220328.66167581	-220360.606928115	39.038	CC#CCCC1CC1C	CC#CCC[C@H]1C[C@H]1C	InChI=1S/C9H14/c1-3-4-5-6-9-7-8(9)2/h8-9H,5-7H2,1-2H3	InChI=1S/C9H14/c1-3-4-5-6-9-7-8(9)2/h8-9H,5-7H2,1-2H3/t8-,9+/m1/s1
38176	C1	C7 O1 N1 H9	1.3591	82	-5.87765942913351	-0.250344753463094	5.62731467567041	4.0553945263984	-252191.658157023	-252186.94932593	-252186.356329477	-252211.525734482	30.059	C1C2C=CCOC=NC12	C1[C@H]2[CH][CH]COC=N[C@@H]12	InChI=1S/C7H9NO/c1-2-6-4-7(6)8-5-9-3-1/h1-2,5-7H,3-4H2/b2-1-,8-5-	InChI=1S/C7H9NO/c1-2-6-4-7(6)8-5-9-3-1/h1-2,5-7H,3-4H2/b2-1?,8-5-/t6-,7+/m1/s1
95841	C1	C6 O2 N1 H9	2.8921	71.6	-7.57564993088319	0.348305743948652	7.92395567483184	4.04045547534935	-275541.787694489	-275536.557403023	-275535.96440657	-275562.462876641	31.295	CC1CC(OCO1)C#N	C[C@H]1C[C@@H](OCO1)C#N	InChI=1S/C6H9NO2/c1-5-2-6(3-7)9-4-8-5/h5-6H,2,4H2,1H3	InChI=1S/C6H9NO2/c1-5-2-6(3-7)9-4-8-5/h5-6H,2,4H2,1H3/t5-,6+/m0/s1
11223	C1	C6 N2 H8	3.714	71.41	-6.47630992654525	0.00272113862459885	6.47903106516985	3.58047420224716	-215111.820247561	-215106.950774042	-215106.358405099	-215132.063703194	28.226	CC1=CC(NC1)C#N	CC1=C[C@@H](NC1)C#N	InChI=1S/C6H8N2/c1-5-2-6(3-7)8-4-5/h2,6,8H,4H2,1H3	InChI=1S/C6H8N2/c1-5-2-6(3-7)8-4-5/h2,6,8H,4H2,1H3/t6-/m1/s1