dsgdb9 ID	symmetry point group	composition	mu / D	alpha / bohr^3	E(HOMO) / eV	E(LUMO) / eV	chemical hardness / eV	zpve / eV	U(0K) / kcal.mol-1	U(298.15K) / kcal.mol-1	H(298.15K) / kcal.mol-1	G(298.15K) / kcal.mol-1	Cv(298.15K) / cal.mol-1.K-1	SMILES BASIC	SMILES STEREO	InChi1	InChi2
31932	C1	C6 N1 O2 H7	5.5193	82.7	-5.39057561533032	-0.960561934483393	4.43001368084692	3.38085147274659	-274802.862030778	-274797.480509529	-274796.888140585	-274824.023532772	30.638	CNC1=CC=C(O1)C=O	CNc1ccc(o1)C=O	InChI=1S/C6H7NO2/c1-7-6-3-2-5(4-8)9-6/h2-4,7H,1H3	InChI=1S/C6H7NO2/c1-7-6-3-2-5(4-8)9-6/h2-4,7H,1H3
2102	Cs	C7 H14	0.083	74.12	-7.82599468434628	2.3510637716534	10.1770584559997	5.37411272665149	-172577.857614875	-172573.347704285	-172572.755335341	-172597.074465009	28.642	CC1CCCCC1	CC1CCCCC1	InChI=1S/C7H14/c1-7-5-3-2-4-6-7/h7H,2-6H2,1H3	InChI=1S/C7H14/c1-7-5-3-2-4-6-7/h7H,2-6H2,1H3
105241	C1	C7 O2 H12	2.8849	78.8	-6.99332626521904	1.89935475997	8.89268102518903	4.91538317731662	-266179.420387586	-266173.204906246	-266172.612537302	-266201.336155968	36.306	CC1CC1(CO)C1CO1	C[C@H]1C[C@]1(CO)[C@H]1CO1	InChI=1S/C7H12O2/c1-5-2-7(5,4-8)6-3-9-6/h5-6,8H,2-4H2,1H3	InChI=1S/C7H12O2/c1-5-2-7(5,4-8)6-3-9-6/h5-6,8H,2-4H2,1H3/t5-,6+,7+/m0/s1
25693	Cs	C8 O1 H8	0.597	90.12	-5.59738215079983	0.111566683608553	5.70894883440838	3.66703362189565	-241410.050790104	-241404.182321502	-241403.589325049	-241433.017636854	32.572	CC#CC1=COC(C)=C1	CC#Cc1coc(C)c1	InChI=1S/C8H8O/c1-3-4-8-5-7(2)9-6-8/h5-6H,1-2H3	InChI=1S/C8H8O/c1-3-4-8-5-7(2)9-6-8/h5-6H,1-2H3
10943	C1	C7 O1 H10	3.1903	73.28	-6.65862621439338	-0.527900893172176	6.1307253212212	4.16051211146665	-218241.575832737	-218236.629175553	-218236.036806609	-218261.90337464	29.532	CC12CC1C(C2)C=O	C[C@]12C[C@H]1[C@@H](C2)C=O	InChI=1S/C7H10O/c1-7-2-5(4-8)6(7)3-7/h4-6H,2-3H2,1H3	InChI=1S/C7H10O/c1-7-2-5(4-8)6(7)3-7/h4-6H,2-3H2,1H3/t5-,6-,7-/m0/s1
125938	C1	C6 N2 O1 H8	4.1184	74.29	-5.63003581429501	-0.0571439111165758	5.57289190317844	3.76733479159836	-262297.038096843	-262292.485515608	-262291.893146665	-262316.937049774	28.681	CC1CC2=NOC=C2N1	C[C@H]1Cc2nocc2N1	InChI=1S/C6H8N2O/c1-4-2-5-6(7-4)3-9-8-5/h3-4,7H,2H2,1H3	InChI=1S/C6H8N2O/c1-4-2-5-6(7-4)3-9-8-5/h3-4,7H,2H2,1H3/t4-/m0/s1
107040	C1	C7 O2 H10	2.3576	75.76	-6.77291403662653	-0.255787030712292	6.51712700591424	4.32081438784177	-265445.746978173	-265440.372359528	-265439.779990584	-265466.572762598	32.881	CCC12OC1C(O)C=C2	CC[C@]12O[C@H]1[C@@H](O)C=C2	InChI=1S/C7H10O2/c1-2-7-4-3-5(8)6(7)9-7/h3-6,8H,2H2,1H3	InChI=1S/C7H10O2/c1-2-7-4-3-5(8)6(7)9-7/h3-6,8H,2H2,1H3/t5-,6-,7+/m0/s1
38928	C1	C8 O1 H12	1.285	80.71	-6.31848388631852	2.05173852294753	8.37022240926605	5.06893702990273	-242889.492226534	-242885.119740518	-242884.527371575	-242909.057344426	29.283	C1C2CC3OCCC1C23	C1[C@H]2C[C@H]3OCC[C@@H]1[C@@H]23	InChI=1S/C8H12O/c1-2-9-7-4-6-3-5(1)8(6)7/h5-8H,1-4H2	InChI=1S/C8H12O/c1-2-9-7-4-6-3-5(1)8(6)7/h5-8H,1-4H2/t5-,6-,7+,8-/m0/s1
3559	C1	O2 C5 H6	2.1546	51.66	-6.52256928316344	2.00275802770475	8.52532731086819	2.80119452293454	-216101.564585603	-216098.361777247	-216097.769408304	-216119.503198938	20.656	OC1C2C3OC1C23	O[C@H]1[C@H]2[C@H]3O[C@@H]1[C@@H]23	InChI=1S/C5H6O2/c6-3-1-2-4(1)7-5(2)3/h1-6H	InChI=1S/C5H6O2/c6-3-1-2-4(1)7-5(2)3/h1-6H/t1-,2-,3-,4+,5+/m0/s1
113663	C1	C7 N1 O1 H13	3.0752	84.51	-6.55522294665862	0.397286239191432	6.95250918585005	5.23234140430989	-253742.26230536	-253735.710478941	-253735.118109997	-253765.076039799	37.285	CCC1CN1C(=O)CC	CC[C@H]1CN1C(=O)CC	InChI=1S/C7H13NO/c1-3-6-5-8(6)7(9)4-2/h6H,3-5H2,1-2H3	InChI=1S/C7H13NO/c1-3-6-5-8(6)7(9)4-2/h6H,3-5H2,1-2H3/t6-,8?/m0/s1
120865	Cs	O3 C6 H12	1.344	76.33	-7.14571002819657	2.10888243406411	9.25459246226068	4.90346459014088	-289487.826192612	-289481.096781013	-289480.50378456	-289511.163897462	37.279	OCCC1OC1CCO	OCC[C@H]1O[C@H]1CCO	InChI=1S/C6H12O3/c7-3-1-5-6(9-5)2-4-8/h5-8H,1-4H2	InChI=1S/C6H12O3/c7-3-1-5-6(9-5)2-4-8/h5-8H,1-4H2/t5-,6+
58448	C1	C7 O1 N1 H13	3.9684	82.38	-6.63685710539659	0.976888766230986	7.61374587162757	5.23764762462786	-253755.885536042	-253749.582203375	-253748.989834431	-253777.896685863	38.07	CC(C)C1(C)CC(=O)N1	CC(C)[C@@]1(C)CC(=O)N1	InChI=1S/C7H13NO/c1-5(2)7(3)4-6(9)8-7/h5H,4H2,1-3H3,(H,8,9)	InChI=1S/C7H13NO/c1-5(2)7(3)4-6(9)8-7/h5H,4H2,1-3H3,(H,8,9)/t7-/m1/s1
10359	C1	C6 O2 H14	1.6625	74.65	-6.99332626521904	1.85037426472722	8.84370052994625	5.38320132965765	-243058.949904985	-243052.308344712	-243051.715975768	-243081.162485348	37.963	CCC(CO)C(C)O	CC[C@@H](CO)[C@@H](C)O	InChI=1S/C6H14O2/c1-3-6(4-7)5(2)8/h5-8H,3-4H2,1-2H3	InChI=1S/C6H14O2/c1-3-6(4-7)5(2)8/h5-8H,3-4H2,1-2H3/t5-,6+/m1/s1
12665	C1	C5 O3 H8	5.0341	60.39	-7.15931572131957	0.42449762543742	7.58381334675699	3.55214714916509	-264133.027278888	-264128.179768201	-264127.587399257	-264153.101306963	28.398	CC1C(O)COC1=O	C[C@H]1[C@@H](O)COC1=O	InChI=1S/C5H8O3/c1-3-4(6)2-8-5(3)7/h3-4,6H,2H2,1H3	InChI=1S/C5H8O3/c1-3-4(6)2-8-5(3)7/h3-4,6H,2H2,1H3/t3-,4-/m0/s1
21391	Cs	N5 C3 H3	3.951	56.25	-6.3783489360597	-0.644909854029927	5.73343908202977	2.07334436362685	-244574.417287831	-244571.087722562	-244570.495353618	-244592.783235118	20.161	N1N=CN2C=NN=C12	[nH]1ncn2cnnc12	InChI=1S/C3H3N5/c1-4-6-3-7-5-2-8(1)3/h1-2H,(H,6,7)	InChI=1S/C3H3N5/c1-4-6-3-7-5-2-8(1)3/h1-2H,(H,6,7)
94707	C1	C8 O1 H14	1.2114	85.78	-6.58515547152921	2.31024669228442	8.89540216381363	5.62396767516216	-243661.204005246	-243655.617915908	-243655.025546964	-243681.889227549	35.442	CC1CC2CC2(C)CO1	C[C@H]1C[C@H]2C[C@@]2(C)CO1	InChI=1S/C8H14O/c1-6-3-7-4-8(7,2)5-9-6/h6-7H,3-5H2,1-2H3	InChI=1S/C8H14O/c1-6-3-7-4-8(7,2)5-9-6/h6-7H,3-5H2,1-2H3/t6-,7-,8-/m0/s1
84601	C1	C7 N2 H8	3.1866	78.34	-6.95795146309925	-0.342863466699455	6.6150879963998	3.73468112810318	-238999.316268122	-238994.380906108	-238993.788537165	-239019.532740848	30.323	CC1C=CC2NC12C#N	C[C@H]1C=C[C@H]2N[C@@]12C#N	InChI=1S/C7H8N2/c1-5-2-3-6-7(5,4-8)9-6/h2-3,5-6,9H,1H3	InChI=1S/C7H8N2/c1-5-2-3-6-7(5,4-8)9-6/h2-3,5-6,9H,1H3/t5-,6+,7-/m0/s1
24125	C1	C6 O2 N1 H7	3.1466	70.85	-6.50624245141584	0.0598650497411746	6.56610750115702	3.40697440354274	-274780.2378042	-274775.395313589	-274774.802317136	-274801.48715752	27.647	C(C1CO1)C1=CN=CO1	C([C@H]1CO1)c1cnco1	InChI=1S/C6H7NO2/c1(6-3-8-6)5-2-7-4-9-5/h2,4,6H,1,3H2	InChI=1S/C6H7NO2/c1(6-3-8-6)5-2-7-4-9-5/h2,4,6H,1,3H2/t6-/m0/s1
48421	C1	O1 C6 N2 H6	1.9189	72.73	-6.51712700591424	-1.23811807419248	5.27900893172176	3.03978395753937	-261536.002764322	-261530.817026028	-261530.224029575	-261556.77772048	30.342	O=CC1(CN=CN1)C#C	O=C[C@]1(C[N][CH]N1)C#C	InChI=1S/C6H6N2O/c1-2-6(4-9)3-7-5-8-6/h1,4-5H,3H2,(H,7,8)	InChI=1S/C6H6N2O/c1-2-6(4-9)3-7-5-8-6/h1,4-5H,3H2,(H,7,8)/t6-/m1/s1
5440	C1	N3 C5 H5	6.0434	67.78	-5.57833418042763	0.231296783090902	5.80963096351854	2.67438946302824	-224459.714048445	-224455.28132152	-224454.688952576	-224479.253438448	26.371	NC1=C(C=CN1)C#N	Nc1c(cc[nH]1)C#N	InChI=1S/C5H5N3/c6-3-4-1-2-8-5(4)7/h1-2,8H,7H2	InChI=1S/C5H5N3/c6-3-4-1-2-8-5(4)7/h1-2,8H,7H2
82264	C1	N2 C6 O1 H6	3.2101	72.79	-6.92257666097947	-1.76601896736465	5.15655769361481	3.106778390477	-261545.401601224	-261540.63441175	-261540.041415297	-261565.589836024	28.752	NC1C2OC2C=C1C#N	N[C@H]1[C@H]2O[C@H]2C=C1C#N	InChI=1S/C6H6N2O/c7-2-3-1-4-6(9-4)5(3)8/h1,4-6H,8H2	InChI=1S/C6H6N2O/c7-2-3-1-4-6(9-4)5(3)8/h1,4-6H,8H2/t4-,5+,6-/m0/s1
2078	C1	O1 C4 N2 H8	3.9574	57.81	-6.22596517308216	0.922465993739009	7.14843116682117	3.50343876778477	-214524.840355409	-214520.924068781	-214520.331699838	-214543.745960843	23.479	O=C1CNCCN1	O=C1CNCCN1	InChI=1S/C4H8N2O/c7-4-3-5-1-2-6-4/h5H,1-3H2,(H,6,7)	InChI=1S/C4H8N2O/c7-4-3-5-1-2-6-4/h5H,1-3H2,(H,6,7)
124277	C1	C5 O1 N3 H7	4.9599	74.63	-6.01371636036345	-0.829947280502648	5.1837690798608	3.4011511668861	-272408.670541061	-272403.124612329	-272402.531615876	-272430.00523567	31.779	CC(=O)C1=NNC(N)=C1	CC(=O)c1n[nH]c(N)c1	InChI=1S/C5H7N3O/c1-3(9)4-2-5(6)8-7-4/h2H,1H3,(H3,6,7,8)	InChI=1S/C5H7N3O/c1-3(9)4-2-5(6)8-7-4/h2H,1H3,(H3,6,7,8)
102949	C1	C6 O3 H8	4.3587	72.52	-7.47496780177303	0.299325248705873	7.77429305047891	3.59729083894718	-287984.011033191	-287977.713348109	-287977.120979166	-288006.522308063	34.453	COC(COC=O)C#C	CO[C@@H](COC=O)C#C	InChI=1S/C6H8O3/c1-3-6(8-2)4-9-5-7/h1,5-6H,4H2,2H3	InChI=1S/C6H8O3/c1-3-6(8-2)4-9-5-7/h1,5-6H,4H2,2H3/t6-/m1/s1
5510	Cs	C6 N2 H6	3.5378	73.63	-5.8885439836319	-0.288440694207478	5.60010328942443	2.93657116950834	-214353.132427983	-214348.44744225	-214347.855073306	-214373.227163871	26.883	CN1C=NC=C1C#C	Cn1cncc1C#C	InChI=1S/C6H6N2/c1-3-6-4-7-5-8(6)2/h1,4-5H,2H3	InChI=1S/C6H6N2/c1-3-6-4-7-5-8(6)2/h1,4-5H,2H3
126958	C1	C5 N4 H10	2.1063	80.06	-4.83546333591215	1.19457985619889	6.03004319211104	4.37784945341336	-260666.715772431	-260660.659678497	-260660.067309553	-260688.692409231	34.842	CCNC1=NNC=C1N	CCNc1n[nH]cc1N	InChI=1S/C5H10N4/c1-2-7-5-4(6)3-8-9-5/h3H,2,6H2,1H3,(H2,7,8,9)	InChI=1S/C5H10N4/c1-2-7-5-4(6)3-8-9-5/h3H,2,6H2,1H3,(H2,7,8,9)
93842	C1	C6 O3 H12	1.8157	74.9	-6.71032784826076	2.26398733566624	8.974315183927	4.95391450024094	-289520.144185546	-289514.375490951	-289513.783122007	-289541.070371487	35.337	CC1OCC(O)C(C)O1	C[C@H]1OC[C@@H](O)[C@@H](C)O1	InChI=1S/C6H12O3/c1-4-6(7)3-8-5(2)9-4/h4-7H,3H2,1-2H3	InChI=1S/C6H12O3/c1-4-6(7)3-8-5(2)9-4/h4-7H,3H2,1-2H3/t4-,5+,6-/m1/s1
35309	C1	C7 O1 N1 H5	4.6339	74.54	-7.21645963243614	-0.653073269903723	6.56338636253242	2.70467573592002	-250673.733447078	-250668.796830045	-250668.203833592	-250694.15637042	29.388	C#CC1OC2(CC12)C#N	C#C[C@H]1O[C@]2(C[C@@H]12)C#N	InChI=1S/C7H5NO/c1-2-6-5-3-7(5,4-8)9-6/h1,5-6H,3H2	InChI=1S/C7H5NO/c1-2-6-5-3-7(5,4-8)9-6/h1,5-6H,3H2/t5-,6+,7+/m0/s1
113481	C1	O1 C6 N2 H10	1.7291	75.83	-6.22868631170676	1.76057669011545	7.98926300182221	4.35390343351689	-263001.336532756	-262996.142636839	-262995.549640386	-263022.202477788	31.745	OCC1NC11CN2CC12	OC[C@H]1N[C@]21CN1C[C@@H]21	InChI=1S/C6H10N2O/c9-2-4-6(7-4)3-8-1-5(6)8/h4-5,7,9H,1-3H2	InChI=1S/C6H10N2O/c9-2-4-6(7-4)3-8-1-5(6)8/h4-5,7,9H,1-3H2/t4-,5+,6+,8?/m1/s1
69466	C1	C6 N2 O1 H10	2.6438	78.44	-6.77019289800193	0.715659458269497	7.48585235627143	4.3392909191028	-263049.407523526	-263043.811394036	-263043.219025093	-263071.108683668	32.867	CC12CC(NC=O)C1N2	C[C@]12C[C@@H](NC=O)[C@H]1N2	InChI=1S/C6H10N2O/c1-6-2-4(7-3-9)5(6)8-6/h3-5,8H,2H2,1H3,(H,7,9)	InChI=1S/C6H10N2O/c1-6-2-4(7-3-9)5(6)8-6/h3-5,8H,2H2,1H3,(H,7,9)/t4-,5-,6+/m1/s1
117625	Cs	C8 O1 H14	0.8722	92.35	-6.49535789691745	1.49390510490477	7.98926300182221	5.4642912606707	-243641.573626369	-243633.979506714	-243633.38713777	-243666.393508596	41.995	CCOC(C)(C)C#CC	CCOC(C)(C)C#CC	InChI=1S/C8H14O/c1-5-7-8(3,4)9-6-2/h6H2,1-4H3	InChI=1S/C8H14O/c1-5-7-8(3,4)9-6-2/h6H2,1-4H3
35526	C1	N1 C6 O2 H7	4.8729	67.29	-7.40149705890886	0.280277278333681	7.68177433724254	3.45864882602387	-274786.073642309	-274781.827913207	-274781.235544264	-274805.728494056	26.544	N#CC1OC2CC1CO2	N#C[C@H]1O[C@@H]2C[C@H]1CO2	InChI=1S/C6H7NO2/c7-2-5-4-1-6(9-5)8-3-4/h4-6H,1,3H2	InChI=1S/C6H7NO2/c7-2-5-4-1-6(9-5)8-3-4/h4-6H,1,3H2/t4-,5+,6+/m0/s1
60546	C1	C8 O1 H14	1.4985	85.37	-7.04502789908641	2.29119872191223	9.33622662099864	5.56532713780205	-243639.87809577	-243633.663241939	-243633.070872995	-243661.670244785	38.013	CC1(CC1)C(O)C1CC1	CC1(CC1)[C@@H](O)C1CC1	InChI=1S/C8H14O/c1-8(4-5-8)7(9)6-2-3-6/h6-7,9H,2-5H2,1H3	InChI=1S/C8H14O/c1-8(4-5-8)7(9)6-2-3-6/h6-7,9H,2-5H2,1H3/t7-/m0/s1
18750	C1	O3 C5 H6	3.5716	56.59	-7.53483285151421	-0.168710594725128	7.36612225678908	2.9266662249148	-263353.211842827	-263349.008156861	-263348.415787917	-263372.735545094	25.111	OC1CC2OC(=O)C12	O[C@H]1C[C@H]2OC(=O)[C@@H]12	InChI=1S/C5H6O3/c6-2-1-3-4(2)5(7)8-3/h2-4,6H,1H2	InChI=1S/C5H6O3/c6-2-1-3-4(2)5(7)8-3/h2-4,6H,1H2/t2-,3+,4-/m0/s1
61423	C1	C6 O3 H10	1.2693	73.12	-6.79468314562332	-0.527900893172176	6.26678225245114	4.19828151557609	-288795.518835239	-288788.603680834	-288788.011311891	-288819.64280946	36.867	CC(OC(C)=O)C(C)=O	C[C@@H](OC(=O)C)C(=O)C	InChI=1S/C6H10O3/c1-4(7)5(2)9-6(3)8/h5H,1-3H3	InChI=1S/C6H10O3/c1-4(7)5(2)9-6(3)8/h5H,1-3H3/t5-/m1/s1
80212	C1	O2 C6 N1 H5	4.5905	68.95	-7.20285393931315	-0.971446488981788	6.23140745033136	2.72633599937183	-274022.424732829	-274017.470545531	-274016.878176588	-274042.865853947	29.26	OC1C2CC(=O)C12C#N	O[C@H]1[C@H]2CC(=O)[C@@]12C#N	InChI=1S/C6H5NO2/c7-2-6-3(5(6)9)1-4(6)8/h3,5,9H,1H2	InChI=1S/C6H5NO2/c7-2-6-3(5(6)9)1-4(6)8/h3,5,9H,1H2/t3-,5+,6+/m1/s1
45929	C1	N3 C4 O2 H5	1.8118	66.56	-6.86543274986289	-1.63268317475931	5.23274957510358	2.79586109123033	-294960.724744281	-294955.986420242	-294955.393423789	-294981.239911516	27.832	N=C1NCC(=O)OC1=N	[NH]C1=C(OC(=O)CN1)[NH]	InChI=1S/C4H5N3O2/c5-3-4(6)9-2(8)1-7-3/h6H,1H2,(H2,5,7)	InChI=1S/C4H5N3O2/c5-3-4(6)9-2(8)1-7-3/h6H,1H2,(H2,5,7)
17277	C1	C6 O2 H10	2.4804	68.94	-7.11577750332598	2.41364996001918	9.52942746334516	4.14034847425838	-241527.299052804	-241522.003500352	-241521.411131409	-241548.533973406	30.078	CC1OC1CC1CO1	C[C@H]1O[C@H]1C[C@H]1CO1	InChI=1S/C6H10O2/c1-4-6(8-4)2-5-3-7-5/h4-6H,2-3H2,1H3	InChI=1S/C6H10O2/c1-4-6(8-4)2-5-3-7-5/h4-6H,2-3H2,1H3/t4-,5+,6+/m1/s1
125677	Cs	C5 N3 O1 H7	1.7745	74.28	-5.83412121113993	0.198643119595716	6.03276433073564	3.42474343876137	-272414.006254119	-272408.728899442	-272408.136530499	-272435.022801424	30.465	CC1=NNC=C1NC=O	Cc1n[nH]cc1NC=O	InChI=1S/C5H7N3O/c1-4-5(6-3-9)2-7-8-4/h2-3H,1H3,(H,6,9)(H,7,8)	InChI=1S/C5H7N3O/c1-4-5(6-3-9)2-7-8-4/h2-3H,1H3,(H,6,9)(H,7,8)
31685	C1	C7 N1 O1 H9	2.6954	83.75	-6.1334464598458	-0.917023716489811	5.21642274335599	4.03240090502054	-252267.731758074	-252262.325763955	-252261.733395011	-252288.994289093	31.562	CCC1=CN(C=O)C=C1	CCc1cn(C=O)cc1	InChI=1S/C7H9NO/c1-2-7-3-4-8(5-7)6-9/h3-6H,2H2,1H3	InChI=1S/C7H9NO/c1-2-7-3-4-8(5-7)6-9/h3-6H,2H2,1H3
122205	C1	O3 C6 H12	1.0851	75.07	-6.86271161123829	1.63812545200851	8.5008370632468	4.90528775301936	-289489.27322946	-289482.833727237	-289482.241358293	-289511.994092497	36.655	OCCCC1(O)COC1	OCCCC1(O)COC1	InChI=1S/C6H12O3/c7-3-1-2-6(8)4-9-5-6/h7-8H,1-5H2	InChI=1S/C6H12O3/c7-3-1-2-6(8)4-9-5-6/h7-8H,1-5H2
91906	C1	C8 O1 H14	1.3051	85.66	-6.41916601542868	2.24493936529405	8.66410538072273	5.61398109640988	-243658.505714507	-243652.878209544	-243652.285840601	-243679.326478857	35.485	CC1CC(C)C2CC2O1	C[C@H]1C[C@@H](C)[C@H]2C[C@H]2O1	InChI=1S/C8H14O/c1-5-3-6(2)9-8-4-7(5)8/h5-8H,3-4H2,1-2H3	InChI=1S/C8H14O/c1-5-3-6(2)9-8-4-7(5)8/h5-8H,3-4H2,1-2H3/t5-,6+,7-,8-/m1/s1
103352	C1	O3 C5 N1 H9	1.9359	68.09	-6.62325141227359	1.36601158954862	7.98926300182221	4.03351657185662	-298781.212638051	-298776.185032144	-298775.592663201	-298801.456093684	32.207	OCC1(O)C2NC1C2O	OC[C@@]1(O)[C@H]2N[C@@H]1[C@H]2O	InChI=1S/C5H9NO3/c7-1-5(9)3-2(8)4(5)6-3/h2-4,6-9H,1H2	InChI=1S/C5H9NO3/c7-1-5(9)3-2(8)4(5)6-3/h2-4,6-9H,1H2/t2-,3-,4+,5+
88929	C1	O3 C6 H6	1.2265	70.22	-6.97972057209604	-1.4258766392898	5.55384393280625	2.96884387359608	-287224.667466212	-287218.901281655	-287218.308285202	-287246.759564756	32.472	OC1CC1OC(=O)C#C	O[C@H]1C[C@H]1OC(=O)C#C	InChI=1S/C6H6O3/c1-2-6(8)9-5-3-4(5)7/h1,4-5,7H,3H2	InChI=1S/C6H6O3/c1-2-6(8)9-5-3-4(5)7/h1,4-5,7H,3H2/t4-,5+/m0/s1
65581	Cs	C8 O1 H10	1.3697	80.05	-7.01237423559123	1.49118396628017	8.5035582018714	4.31433807791523	-242127.544495238	-242122.290358412	-242121.697989468	-242147.887097368	33.234	CC1(CC2OC2C1)C#C	C[C@]1(C[C@H]2O[C@H]2C1)C#C	InChI=1S/C8H10O/c1-3-8(2)4-6-7(5-8)9-6/h1,6-7H,4-5H2,2H3	InChI=1S/C8H10O/c1-3-8(2)4-6-7(5-8)9-6/h1,6-7H,4-5H2,2H3/t6-,7+,8-
74558	C1	C8 N1 H9	1.5859	83.35	-5.82867893389073	0.255787030712292	6.08446596460302	3.99846830637179	-228892.425912999	-228887.215701836	-228886.622705383	-228912.905939704	32.196	CC1=CC2C(C#C)N2C1	CC1=C[C@H]2[C@@H](C#C)N2C1	InChI=1S/C8H9N/c1-3-7-8-4-6(2)5-9(7)8/h1,4,7-8H,5H2,2H3	InChI=1S/C8H9N/c1-3-7-8-4-6(2)5-9(7)8/h1,4,7-8H,5H2,2H3/t7-,8+,9?/m1/s1
111552	C1	C7 O2 H10	1.0843	75.04	-6.58787661015381	2.24493936529405	8.83281597544786	4.32043342843433	-265410.857451415	-265405.667948065	-265405.074951612	-265431.430977032	31.979	COC1C2CC3C2C13O	CO[C@H]1[C@H]2C[C@@H]3[C@H]2[C@]13O	InChI=1S/C7H10O2/c1-9-6-3-2-4-5(3)7(4,6)8/h3-6,8H,2H2,1H3	InChI=1S/C7H10O2/c1-9-6-3-2-4-5(3)7(4,6)8/h3-6,8H,2H2,1H3/t3-,4+,5-,6-,7-/m0/s1
129425	C1	N4 C4 O1 H6	1.5796	72.06	-5.53751710105865	-0.756476537638479	4.78104056342017	3.14422125795148	-282491.537950988	-282486.480852137	-282485.887855684	-282511.908791045	30.776	NC(=O)C1=C(N)C=NN1	NC(=O)c1c(N)cn[nH]1	InChI=1S/C4H6N4O/c5-2-1-7-8-3(2)4(6)9/h1H,5H2,(H2,6,9)(H,7,8)	InChI=1S/C4H6N4O/c5-2-1-7-8-3(2)4(6)9/h1H,5H2,(H2,6,9)(H,7,8)
46777	C1	N1 C7 O1 H11	2.6573	79.11	-6.98788398796984	0.402728516440629	7.39061250441047	4.73633225581801	-252981.225090311	-252976.526299369	-252975.933930425	-253001.237622458	30.17	N=C1CC2CC(C2)CO1	[NH][C]1C[C@@H]2C[C@@H](C2)CO1	InChI=1S/C7H11NO/c8-7-3-5-1-6(2-5)4-9-7/h5-6,8H,1-4H2	InChI=1S/C7H11NO/c8-7-3-5-1-6(2-5)4-9-7/h5-6,8H,1-4H2/t5-,6+
1490	C1	C4 N2 O1 H8	2.7291	62.54	-6.64229938264579	-1.63268317475931	5.00961620788648	3.37513708163493	-214516.404118039	-214511.374002095	-214510.781633152	-214536.719109753	28.114	CCN=C(N)C=O	CCN=C(N)C=O	InChI=1S/C4H8N2O/c1-2-6-4(5)3-7/h3H,2H2,1H3,(H2,5,6)	InChI=1S/C4H8N2O/c1-2-6-4(5)3-7/h3H,2H2,1H3,(H2,5,6)
32532	C1	C6 N1 O2 H9	1.6315	75.79	-5.06948125762765	1.08573431121494	6.15521556884259	4.01514888614058	-275529.245662631	-275523.536581436	-275522.944212493	-275550.631185507	33.127	CNC1=COC=C1OC	CNc1cocc1OC	InChI=1S/C6H9NO2/c1-7-5-3-9-4-6(5)8-2/h3-4,7H,1-2H3	InChI=1S/C6H9NO2/c1-7-5-3-9-4-6(5)8-2/h3-4,7H,1-2H3
970	Cs	C5 O2 H6	1.5353	56.4	-5.33071056558914	0.674842378900514	6.00555294448965	2.75879918316329	-216165.658403284	-216161.349923235	-216160.757554291	-216185.029620748	24.393	CC1=C(O)C=CO1	Cc1c(O)cco1	InChI=1S/C5H6O2/c1-4-5(6)2-3-7-4/h2-3,6H,1H3	InChI=1S/C5H6O2/c1-4-5(6)2-3-7-4/h2-3,6H,1H3
34918	C1	N2 C7 H8	5.2428	74.79	-6.90080755198267	1.1809741630759	8.08178171505857	3.78042346838269	-238987.168939723	-238982.760685668	-238982.168316724	-239006.923565476	28.125	N#CC1C2CC2C2NC12	N#C[C@H]1[C@H]2C[C@H]2[C@H]2N[C@@H]12	InChI=1S/C7H8N2/c8-2-5-3-1-4(3)6-7(5)9-6/h3-7,9H,1H2	InChI=1S/C7H8N2/c8-2-5-3-1-4(3)6-7(5)9-6/h3-7,9H,1H2/t3-,4+,5-,6+,7-/m0/s1
51161	C1	O1 C8 H10	2.9227	81.29	-6.40283918368109	-0.579602527039554	5.82323665664153	4.32742675469955	-242154.666082216	-242149.469048752	-242148.876679809	-242175.82821172	31.375	O=CCC12CC1CC=C2	O=CC[C@]12C[C@H]1CC=C2	InChI=1S/C8H10O/c9-5-4-8-3-1-2-7(8)6-8/h1,3,5,7H,2,4,6H2	InChI=1S/C8H10O/c9-5-4-8-3-1-2-7(8)6-8/h1,3,5,7H,2,4,6H2/t7-,8-/m1/s1
58884	C1	C6 O2 N1 H9	1.2433	71.02	-6.6123668577752	0.361911437071647	6.97427829484684	4.00916238116646	-275526.593807594	-275521.335905711	-275520.742909258	-275547.282167444	31.94	CC(O)C12CC1OC=N2	C[C@@H](O)[C@]12C[C@H]1OC=N2	InChI=1S/C6H9NO2/c1-4(8)6-2-5(6)9-3-7-6/h3-5,8H,2H2,1H3	InChI=1S/C6H9NO2/c1-4(8)6-2-5(6)9-3-7-6/h3-5,8H,2H2,1H3/t4-,5-,6-/m1/s1
56124	C1	C5 O2 N2 H8	3.3778	73.48	-6.52529042178803	-1.83676857160422	4.68852185018381	3.61214825583749	-285628.321642274	-285621.953676131	-285621.361307188	-285651.588438553	34.303	CC(=O)CNC(=N)C=O	CC(=O)CNC(=N)C=O	InChI=1S/C5H8N2O2/c1-4(9)2-7-5(6)3-8/h3H,2H2,1H3,(H2,6,7)	InChI=1S/C5H8N2O2/c1-4(9)2-7-5(6)3-8/h3H,2H2,1H3,(H2,6,7)
112971	C1	C8 N1 H15	0.9759	91.08	-6.22052289583296	2.21772797904806	8.43825087488102	5.9129798084808	-231159.409937153	-231153.365138389	-231152.772769446	-231181.396614105	36.377	CCC1CC(C1)N1CC1	CC[C@H]1C[C@@H](C1)N1CC1	InChI=1S/C8H15N/c1-2-7-5-8(6-7)9-3-4-9/h7-8H,2-6H2,1H3	InChI=1S/C8H15N/c1-2-7-5-8(6-7)9-3-4-9/h7-8H,2-6H2,1H3/t7-,8-
111988	C1	C8 O1 H12	1.6769	83.87	-6.54161725353563	0.114287822233152	6.65590507576878	4.94384628732992	-242903.382148742	-242897.713855663	-242897.121486719	-242924.460819485	34.552	CCC1C=CC2(C)OC12	CC[C@H]1C=C[C@@]2(C)O[C@@H]12	InChI=1S/C8H12O/c1-3-6-4-5-8(2)7(6)9-8/h4-7H,3H2,1-2H3	InChI=1S/C8H12O/c1-3-6-4-5-8(2)7(6)9-8/h4-7H,3H2,1-2H3/t6-,7-,8+/m0/s1