dsgdb9 ID	symmetry point group	composition	mu / D	alpha / bohr^3	E(HOMO) / eV	E(LUMO) / eV	chemical hardness / eV	zpve / eV	U(0K) / kcal.mol-1	U(298.15K) / kcal.mol-1	H(298.15K) / kcal.mol-1	G(298.15K) / kcal.mol-1	Cv(298.15K) / cal.mol-1.K-1	SMILES BASIC	SMILES STEREO	InChi1	InChi2
11233	C1	C5 N1 O2 H7	1.9702	62.86	-6.65318393714418	-0.843552973625642	5.80963096351854	3.21853555378927	-250898.423881927	-250893.567586107	-250892.975217164	-250919.041333207	26.835	CC1=NC(CO1)C=O	CC1=N[C@@H](CO1)C=O	InChI=1S/C5H7NO2/c1-4-6-5(2-7)3-8-4/h2,5H,3H2,1H3	InChI=1S/C5H7NO2/c1-4-6-5(2-7)3-8-4/h2,5H,3H2,1H3/t5-/m1/s1
57300	C1	C7 O1 N1 H13	2.5092	83.25	-6.8491059181153	-0.620419606408537	6.22868631170676	5.23089920083885	-253734.535153696	-253728.059883433	-253727.46751449	-253756.67494296	38.119	CC(C)(C)C(=O)C1CN1	CC(C)(C)C(=O)[C@H]1CN1	InChI=1S/C7H13NO/c1-7(2,3)6(9)5-4-8-5/h5,8H,4H2,1-3H3	InChI=1S/C7H13NO/c1-7(2,3)6(9)5-4-8-5/h5,8H,4H2,1-3H3/t5-/m1/s1
59713	C1	C7 O1 N1 H13	0.7981	80.91	-6.26678225245114	2.1306515430609	8.39743379551204	5.32072398683686	-253724.166814656	-253718.651633889	-253718.059264945	-253745.010796856	34.616	CC(O)C1CCC2CN12	C[C@@H](O)[C@H]1CC[C@H]2CN12	InChI=1S/C7H13NO/c1-5(9)7-3-2-6-4-8(6)7/h5-7,9H,2-4H2,1H3	InChI=1S/C7H13NO/c1-5(9)7-3-2-6-4-8(6)7/h5-7,9H,2-4H2,1H3/t5-,6+,7-,8?/m1/s1
63181	C1	C8 O1 H14	1.2194	85.45	-6.51984814453884	2.19051659280207	8.71036473734091	5.6358862623379	-243656.814576475	-243651.259235101	-243650.666866157	-243677.371786845	35.211	CC1(C)C2CCOCC12	CC1(C)[C@H]2CCOC[C@@H]12	InChI=1S/C8H14O/c1-8(2)6-3-4-9-5-7(6)8/h6-7H,3-5H2,1-2H3	InChI=1S/C8H14O/c1-8(2)6-3-4-9-5-7(6)8/h6-7H,3-5H2,1-2H3/t6-,7+/m0/s1
17637	C1	C6 N1 O1 H11	3.0895	71.91	-6.45998309479766	-0.429939902686618	6.03004319211104	4.45444950569582	-229077.083753441	-229071.299998618	-229070.707629675	-229098.79997381	32.704	CC(C1CN1)C(C)=O	C[C@@H]([C@H]1CN1)C(=O)C	InChI=1S/C6H11NO/c1-4(5(2)8)6-3-7-6/h4,6-7H,3H2,1-2H3	InChI=1S/C6H11NO/c1-4(5(2)8)6-3-7-6/h4,6-7H,3H2,1-2H3/t4-,6-/m1/s1
73429	Cs	C8 N1 H11	1.247	81.03	-5.72255452753137	1.91023931446839	7.63279384199976	4.70558338936005	-229634.479083929	-229629.877556956	-229629.285188012	-229654.4269826	30.088	CC12CCN3C4C3C1C24	C[C@]12CCN3[C@@H]4[C@H]3[C@H]1[C@H]24	InChI=1S/C8H11N/c1-8-2-3-9-6-4(8)5(8)7(6)9/h4-7H,2-3H2,1H3	InChI=1S/C8H11N/c1-8-2-3-9-6-4(8)5(8)7(6)9/h4-7H,2-3H2,1H3/t4-,5+,6-,7+,8+,9?
3365	C1	O2 C4 N1 H5	1.0961	48.93	-6.65318393714418	0.304767525955071	6.95795146309925	2.482658035539	-226212.06563024	-226208.493846313	-226207.90147737	-226230.564609535	20.837	OC1C2OC=NC12	O[C@H]1[C@H]2OC=N[C@@H]12	InChI=1S/C4H5NO2/c6-3-2-4(3)7-1-5-2/h1-4,6H	InChI=1S/C4H5NO2/c6-3-2-4(3)7-1-5-2/h1-4,6H/t2-,3+,4-/m0/s1
50044	C1	O2 C7 H10	3.3225	76.76	-6.93618235410246	-1.08029203396574	5.85589032013672	4.32133140418044	-265456.54829875	-265451.268434035	-265450.676065092	-265477.682190327	31.387	O=CC1OC11CCCC1	O=C[C@H]1OC21CCCC2	InChI=1S/C7H10O2/c8-5-6-7(9-6)3-1-2-4-7/h5-6H,1-4H2	InChI=1S/C7H10O2/c8-5-6-7(9-6)3-1-2-4-7/h5-6H,1-4H2/t6-/m1/s1
48547	C1	O2 C7 H8	3.7047	73.48	-6.73209695725755	-0.631304160906932	6.10079279635061	3.73413690037826	-264689.208378544	-264684.732353465	-264684.139984522	-264709.148119591	27.64	O=CC12C3CC1OCC23	O=C[C@@]12[C@H]3C[C@@H]1OC[C@@H]23	InChI=1S/C7H8O2/c8-3-7-4-1-6(7)9-2-5(4)7/h3-6H,1-2H2	InChI=1S/C7H8O2/c8-3-7-4-1-6(7)9-2-5(4)7/h3-6H,1-2H2/t4-,5+,6-,7-/m0/s1
47309	C1	O3 C6 H8	2.5081	68.02	-6.8409425022415	-0.952398518609596	5.8885439836319	3.70175535074553	-288033.552278659	-288028.460039277	-288027.867670333	-288054.452109202	30.105	O=C1CCCC(=O)OC1	O=C1CCCC(=O)OC1	InChI=1S/C6H8O3/c7-5-2-1-3-6(8)9-4-5/h1-4H2	InChI=1S/C6H8O3/c7-5-2-1-3-6(8)9-4-5/h1-4H2
49445	C1	O1 C7 N1 H9	2.266	76.13	-6.51440586728964	-0.900696884742218	5.61370898254742	4.05667346155196	-252191.023744945	-252186.50818677	-252185.915817826	-252211.099028039	27.955	O=CC1C2C3CCC2N13	O=C[C@H]1[C@H]2[C@@H]3CC[C@H]2N13	InChI=1S/C7H9NO/c9-3-6-7-4-1-2-5(7)8(4)6/h3-7H,1-2H2	InChI=1S/C7H9NO/c9-3-6-7-4-1-2-5(7)8(4)6/h3-7H,1-2H2/t4-,5+,6-,7-/m0/s1
37747	C1	C7 N1 O1 H9	2.2505	74.49	-6.26133997520195	1.92112386896679	8.18246384416873	4.09694631319602	-252159.171991551	-252155.282060322	-252154.689691378	-252178.10897246	26.465	C1N2C3C4OCCC13C24	C1N2[C@@H]3[C@H]4OCC[C@@]13[C@@H]24	InChI=1S/C7H9NO/c1-2-9-4-5-7(1)3-8(5)6(4)7/h4-6H,1-3H2	InChI=1S/C7H9NO/c1-2-9-4-5-7(1)3-8(5)6(4)7/h4-6H,1-3H2/t4-,5-,6+,7-
111330	C1	C7 O2 H10	0.6746	75.03	-6.85999047261369	1.95649867108657	8.81648914370026	4.28952129365888	-265411.945552843	-265406.607957257	-265406.015588313	-265432.867973727	32.127	CCC1C2OC2C11CO1	CC[C@H]1[C@H]2O[C@H]2[C@]21CO2	InChI=1S/C7H10O2/c1-2-4-5-6(9-5)7(4)3-8-7/h4-6H,2-3H2,1H3	InChI=1S/C7H10O2/c1-2-4-5-6(9-5)7(4)3-8-7/h4-6H,2-3H2,1H3/t4-,5+,6+,7+/m0/s1
123810	C1	C5 O2 N2 H6	2.9235	67.9	-6.56882863978162	-1.09117658846414	5.47765205131748	3.0450085436986	-284818.805555297	-284814.05279854	-284813.460429597	-284839.83653532	27.653	C1CC1OC1=CON=N1	C1CC1Oc1conn1	InChI=1S/C5H6N2O2/c1-2-4(1)9-5-3-8-7-6-5/h3-4H,1-2H2	InChI=1S/C5H6N2O2/c1-2-4(1)9-5-3-8-7-6-5/h3-4H,1-2H2
35120	C1	C7 O1 N1 H7	2.1323	75.65	-6.68311646201477	-0.457151288932606	6.22596517308216	3.39200814110745	-251443.045629561	-251438.024926259	-251437.432557316	-251463.552011664	30.174	C#CC1C=CCOC=N1	C#C[C@H]1C=CCOC=N1	InChI=1S/C7H7NO/c1-2-7-4-3-5-9-6-8-7/h1,3-4,6-7H,5H2	InChI=1S/C7H7NO/c1-2-7-4-3-5-9-6-8-7/h1,3-4,6-7H,5H2/t7-/m0/s1
35393	C1	N1 C6 O2 H5	3.0594	64.63	-7.05319131496021	-0.0244902476213896	7.02870106733882	2.76903066439179	-273980.75998628	-273976.719452776	-273976.127083833	-274000.276785942	25.1	N#CC1OC2C3OC2C13	N#C[C@H]1O[C@@H]2[C@H]3O[C@@H]2[C@@H]13	InChI=1S/C6H5NO2/c7-1-2-3-4-6(8-2)5(3)9-4/h2-6H	InChI=1S/C6H5NO2/c7-1-2-3-4-6(8-2)5(3)9-4/h2-6H/t2-,3-,4-,5+,6+/m1/s1
118262	C1	C7 O2 H12	1.6937	81.97	-6.8463847794907	0.857158666748637	7.70354344623934	4.85214391568094	-266174.123580116	-266167.071001137	-266166.478004684	-266197.820220385	39.345	CC(CCO)OCC#C	C[C@@H](CCO)OCC#C	InChI=1S/C7H12O2/c1-3-6-9-7(2)4-5-8/h1,7-8H,4-6H2,2H3	InChI=1S/C7H12O2/c1-3-6-9-7(2)4-5-8/h1,7-8H,4-6H2,2H3/t7-/m0/s1
30280	C1	C6 O1 N2 H8	2.267	74.06	-5.05859670312926	1.13199366783312	6.19059037096238	3.77245053221261	-262318.953237715	-262314.167222956	-262313.574854012	-262339.318430186	29.009	CC1COC2=C1N=CN2	C[C@H]1COc2c1nc[nH]2	InChI=1S/C6H8N2O/c1-4-2-9-6-5(4)7-3-8-6/h3-4H,2H2,1H3,(H,7,8)	InChI=1S/C6H8N2O/c1-4-2-9-6-5(4)7-3-8-6/h3-4H,2H2,1H3,(H,7,8)/t4-/m0/s1
115977	C1	C6 O2 N1 H11	1.7683	77.76	-6.65046279851958	0.843552973625642	7.49401577214522	4.64199037970317	-276297.911510356	-276292.066887115	-276291.474518172	-276319.50348385	33.79	COC1CCN=C(C)O1	CO[C@H]1CCN=C(C)O1	InChI=1S/C6H11NO2/c1-5-7-4-3-6(8-2)9-5/h6H,3-4H2,1-2H3	InChI=1S/C6H11NO2/c1-5-7-4-3-6(8-2)9-5/h6H,3-4H2,1-2H3/t6-/m1/s1
41040	C1	C8 N1 H9	2.0858	78.09	-5.64636264604261	1.63540431338391	7.28176695942651	4.07446970815684	-228842.242725339	-228838.237332366	-228837.644963423	-228861.315875803	27.08	C1CC23C4C2N2C4C32C1	C1C[C@@]23[C@H]4[C@@H]2N2[C@H]4[C@]32C1	InChI=1S/C8H9N/c1-2-7-4-5(7)9-6(4)8(7,9)3-1/h4-6H,1-3H2	InChI=1S/C8H9N/c1-2-7-4-5(7)9-6(4)8(7,9)3-1/h4-6H,1-3H2/t4-,5-,6+,7+,8+,9?/m0/s1
68751	C1	C7 O2 H10	4.514	75.26	-7.01237423559123	0.405449655065228	7.41782389065646	4.32478725023368	-265483.434569676	-265477.973354723	-265477.38035827	-265504.105359261	32.904	CC12CC1(C)C(=O)OC2	C[C@@]12C[C@]1(C)C(=O)OC2	InChI=1S/C7H10O2/c1-6-3-7(6,2)5(8)9-4-6/h3-4H2,1-2H3	InChI=1S/C7H10O2/c1-6-3-7(6,2)5(8)9-4-6/h3-4H2,1-2H3/t6-,7+/m0/s1
77535	C1	C7 O2 H8	1.6744	77.11	-6.77835631387573	0.334700050825658	7.11305636470138	3.62246137122472	-264641.497578212	-264636.114174434	-264635.521177981	-264662.032198241	33.376	CC12CC(O1)(C#C)C2O	C[C@@]12C[C@](O1)(C#C)[C@H]2O	InChI=1S/C7H8O2/c1-3-7-4-6(2,9-7)5(7)8/h1,5,8H,4H2,2H3	InChI=1S/C7H8O2/c1-3-7-4-6(2,9-7)5(7)8/h1,5,8H,4H2,2H3/t5-,6-,7+/m0/s1
52589	C1	C8 N1 H9	4.2387	85.22	-7.19196938481475	0.631304160906932	7.82327354572168	3.96995077358599	-228906.913851736	-228900.622441749	-228900.030072806	-228930.613002043	34.479	CC#CC(C#N)C1CC1	CC#C[C@@H](C#N)C1CC1	InChI=1S/C8H9N/c1-2-3-8(6-9)7-4-5-7/h7-8H,4-5H2,1H3	InChI=1S/C8H9N/c1-2-3-8(6-9)7-4-5-7/h7-8H,4-5H2,1H3/t8-/m0/s1
27233	C1	C6 N2 O1 H8	3.947	78.77	-5.05859670312926	0.740149705890886	5.79874640902014	3.72698030579556	-262300.100970585	-262295.102857624	-262294.510488681	-262320.525776457	29.961	CC1=C2CCN2C(=N)O1	C[C]1[C]2CCN2[C]([NH])O1	InChI=1S/C6H8N2O/c1-4-5-2-3-8(5)6(7)9-4/h7H,2-3H2,1H3	InChI=1S/C6H8N2O/c1-4-5-2-3-8(5)6(7)9-4/h7H,2-3H2,1H3
65881	C1	O4 C5 H6	2.0076	61.78	-7.50762146526822	-1.61363520438712	5.8939862608811	3.02949805353839	-310585.745788982	-310580.672374884	-310580.08000594	-310606.539570424	29.633	OC1(COC(=O)C1)C=O	O[C@]1(COC(=O)C1)C=O	InChI=1S/C5H6O4/c6-2-5(8)1-4(7)9-3-5/h2,8H,1,3H2	InChI=1S/C5H6O4/c6-2-5(8)1-4(7)9-3-5/h2,8H,1,3H2/t5-/m0/s1
48309	C1	O1 C8 H8	2.3301	79.92	-6.78107745250033	-0.936071686862003	5.84500576563832	3.66540093872089	-241343.728058771	-241338.707355469	-241338.114359016	-241364.127764263	30.892	O=CC1(C#C)C2CC1C2	O=C[C@@]1(C#C)[C@H]2C[C@@H]1C2	InChI=1S/C8H8O/c1-2-8(5-9)6-3-7(8)4-6/h1,5-7H,3-4H2	InChI=1S/C8H8O/c1-2-8(5-9)6-3-7(8)4-6/h1,5-7H,3-4H2/t6-,7+,8-
36851	C1	C8 O1 H12	1.7506	83.11	-6.64774165989498	2.41909223726837	9.06683389716336	4.97190122654954	-242870.643096952	-242865.296716233	-242864.704347289	-242891.970261447	32.513	C(C1CO1)C12CC1CC2	C([C@H]1CO1)[C@]12C[C@H]1CC2	InChI=1S/C8H12O/c1-2-8(3-6(1)8)4-7-5-9-7/h6-7H,1-5H2	InChI=1S/C8H12O/c1-2-8(3-6(1)8)4-7-5-9-7/h6-7H,1-5H2/t6-,7+,8+/m1/s1
10966	C1	C6 N1 O1 H7	1.3658	66.52	-6.72121240275915	-0.0272113862459885	6.69400101651316	3.24008697169609	-227557.84064609	-227553.532166041	-227552.939797097	-227577.175468005	26.4	CC12NC(C=C1)C2=O	C[C@@]12N[C@@H](C=C1)C2=O	InChI=1S/C6H7NO/c1-6-3-2-4(7-6)5(6)8/h2-4,7H,1H3	InChI=1S/C6H7NO/c1-6-3-2-4(7-6)5(6)8/h2-4,7H,1H3/t4-,6+/m0/s1
104351	C1	C7 O2 H12	3.5963	77.71	-6.66406849164258	-0.748313121764683	5.91575536987789	4.96542491662299	-266231.669963944	-266225.927624747	-266225.335255804	-266252.763067405	35.076	CC1(CO)CCCC1=O	C[C@@]1(CO)CCCC1=O	InChI=1S/C7H12O2/c1-7(5-8)4-2-3-6(7)9/h8H,2-5H2,1H3	InChI=1S/C7H12O2/c1-7(5-8)4-2-3-6(7)9/h8H,2-5H2,1H3/t7-/m0/s1
34803	Cs	N1 C8 H9	4.3766	79.37	-7.41510275203186	0.906139161991416	8.32124191402327	4.10538184293228	-228907.10022205	-228902.85261042	-228902.260241476	-228926.531052914	28.104	N#CC1C2CC1C1CC21	N#C[C@H]1[C@H]2C[C@@H]1[C@H]1C[C@@H]21	InChI=1S/C8H9N/c9-3-8-6-2-7(8)5-1-4(5)6/h4-8H,1-2H2	InChI=1S/C8H9N/c9-3-8-6-2-7(8)5-1-4(5)6/h4-8H,1-2H2/t4-,5+,6+,7-,8+
100743	C1	N1 H9 C4 O4	4.1304	64.07	-6.89808641335808	0.2367390603401	7.13482547369818	4.012318901971	-322154.241251244	-322148.343289697	-322147.750293244	-322175.921703573	34.683	[NH3+]C(C(O)CO)C([O-])=O	N[C@@H]([C@@H](O)CO)C(=O)O	InChI=1S/C4H9NO4/c5-3(4(8)9)2(7)1-6/h2-3,6-7H,1,5H2,(H,8,9)	InChI=1S/C4H9NO4/c5-3(4(8)9)2(7)1-6/h2-3,6-7H,1,5H2,(H,8,9)/t2-,3-/m0/s1
100052	C1	C7 O2 H14	1.9473	80.92	-6.66134735301798	1.78778807636144	8.44913542937942	5.55120442834039	-266947.311261111	-266940.771984882	-266940.179615938	-266969.438500186	38.533	CC(C)(CO)C1CCO1	CC(C)(CO)[C@H]1CCO1	InChI=1S/C7H14O2/c1-7(2,5-8)6-3-4-9-6/h6,8H,3-5H2,1-2H3	InChI=1S/C7H14O2/c1-7(2,5-8)6-3-4-9-6/h6,8H,3-5H2,1-2H3/t6-/m1/s1
27386	C1	N3 C4 O2 H5	7.2121	68.84	-6.15249443021799	-0.146941485728338	6.00555294448965	2.7886228624889	-294974.652944567	-294969.708797421	-294969.115800968	-294994.869417293	30.132	NC1=CC(=O)N=C(N)O1	Nc1cc(=O)nc(N)o1	InChI=1S/C4H5N3O2/c5-2-1-3(8)7-4(6)9-2/h1H,5H2,(H2,6,7,8)	InChI=1S/C4H5N3O2/c5-2-1-3(8)7-4(6)9-2/h1H,5H2,(H2,6,7,8)
30531	C1	C6 O1 N2 H8	2.3189	89.32	-4.89532838565332	-0.133335792605343	4.76199259304798	3.70292544035411	-262332.475439371	-262326.907547808	-262326.315178864	-262353.630038761	32.572	CC1=COC(=C1)N=CN	Cc1coc(c1)N=CN	InChI=1S/C6H8N2O/c1-5-2-6(8-4-7)9-3-5/h2-4H,1H3,(H2,7,8)	InChI=1S/C6H8N2O/c1-5-2-6(8-4-7)9-3-5/h2-4H,1H3,(H2,7,8)
112626	C1	C7 O2 H14	2.3378	82.63	-6.64774165989498	1.91568159171759	8.56342325161257	5.54173486592678	-266945.285660529	-266938.78152483	-266938.189155887	-266967.382779148	38.551	COC1CC(C)(CO)C1	CO[C@H]1C[C@@](C)(CO)C1	InChI=1S/C7H14O2/c1-7(5-8)3-6(4-7)9-2/h6,8H,3-5H2,1-2H3	InChI=1S/C7H14O2/c1-7(5-8)3-6(4-7)9-2/h6,8H,3-5H2,1-2H3/t6-,7+
11464	C1	C5 O3 H10	1.7232	64.05	-6.89264413610888	2.42997679176677	9.32262092787565	4.18459418829435	-264859.218265333	-264854.092767948	-264853.500399005	-264879.97000364	29.814	CC1OCC(CO)O1	C[C@H]1OC[C@@H](CO)O1	InChI=1S/C5H10O3/c1-4-7-3-5(2-6)8-4/h4-6H,2-3H2,1H3	InChI=1S/C5H10O3/c1-4-7-3-5(2-6)8-4/h4-6H,2-3H2,1H3/t4-,5+/m0/s1
8727	C1	O2 C6 H4	3.1948	63.33	-7.36884339541368	-2.19323773142667	5.17560566398701	2.16597192240819	-239250.335745484	-239245.081608658	-239244.489239714	-239271.155882324	29.569	OC(C#C)C(=O)C#C	O[C@@H](C#C)C(=O)C#C	InChI=1S/C6H4O2/c1-3-5(7)6(8)4-2/h1-2,5,7H	InChI=1S/C6H4O2/c1-3-5(7)6(8)4-2/h1-2,5,7H/t5-/m0/s1
17860	C1	C6 N1 O1 H9	2.7041	69	-6.3701855201859	2.1170458499379	8.4872313701238	3.86115965137453	-228260.169329764	-228255.73597533	-228255.142978877	-228279.661656557	27.598	CC1NC11C2CC1O2	C[C@H]1N[C@]21[C@H]1C[C@@H]2O1	InChI=1S/C6H9NO/c1-3-6(7-3)4-2-5(6)8-4/h3-5,7H,2H2,1H3	InChI=1S/C6H9NO/c1-3-6(7-3)4-2-5(6)8-4/h3-5,7H,2H2,1H3/t3-,4-,5+,6-/m1/s1
90857	C1	O1 C7 N1 H9	1.4482	74.83	-5.87493829050891	0.114287822233152	5.98922611274206	4.08274196957562	-252191.860215074	-252187.626408653	-252187.034039709	-252211.162406496	28.33	OC1CN2C3C=CC2C13	O[C@H]1CN2[C@H]3C=C[C@@H]2[C@@H]13	InChI=1S/C7H9NO/c9-6-3-8-4-1-2-5(8)7(4)6/h1-2,4-7,9H,3H2	InChI=1S/C7H9NO/c9-6-3-8-4-1-2-5(8)7(4)6/h1-2,4-7,9H,3H2/t4-,5+,6-,7-/m0/s1
124564	C1	C7 O1 N1 H11	3.2504	80.52	-6.89536527473348	-0.242181337589297	6.65318393714418	4.64337816040172	-252983.330384596	-252977.616910835	-252977.024541891	-253005.178381955	33.392	CC(C)CC1=CON=C1	CC(C)Cc1conc1	InChI=1S/C7H11NO/c1-6(2)3-7-4-8-9-5-7/h4-6H,3H2,1-2H3	InChI=1S/C7H11NO/c1-6(2)3-7-4-8-9-5-7/h4-6H,3H2,1-2H3
127843	Cs	C5 N4 H8	4.7223	88.03	-5.6545260619164	-1.34968475780103	4.30484130411538	3.68722447049018	-259887.220366202	-259881.639924449	-259881.047555506	-259908.827399923	31.363	CN=C1C=CN(C)N=N1	C[N]c1ccn(C)nn1	InChI=1S/C5H8N4/c1-6-5-3-4-9(2)8-7-5/h3-4H,1-2H3	InChI=1S/C5H13N4/c1-6-5-3-4-9(2)8-7-5/h5,7-8H,3-4H2,1-2H3
76973	C1	C7 O1 N1 H11	3.9963	82.16	-6.38651235193349	-0.323815496327263	6.06269685560623	4.60843874046187	-252956.243310639	-252950.366056905	-252949.773687961	-252978.033577126	34.151	CC1C(C=O)C1N1CC1	C[C@H]1[C@@H](C=O)[C@H]1N1CC1	InChI=1S/C7H11NO/c1-5-6(4-9)7(5)8-2-3-8/h4-7H,2-3H2,1H3	InChI=1S/C7H11NO/c1-5-6(4-9)7(5)8-2-3-8/h4-7H,2-3H2,1H3/t5-,6+,7-/m0/s1
5043	C1	N3 C5 H5	2.3072	71.06	-6.63413596677199	-2.57691827749511	4.05721768927688	2.65950483475168	-224425.151454123	-224421.234539986	-224420.642171042	-224444.28108044	23.494	N=C1C=CN=CC=N1	[NH][C]1C=CN=CC=N1	InChI=1S/C5H5N3/c6-5-1-2-7-3-4-8-5/h1-4,6H	InChI=1S/C5H5N3/c6-5-1-2-7-3-4-8-5/h1-4,6H
57973	C1	C7 N1 O1 H11	1.7617	83.53	-7.28176695942651	0.59048708153795	7.87225404096446	4.5600568957165	-252962.598726592	-252955.949008695	-252955.356639752	-252985.491527225	37.836	CC(C)C(=N)OCC#C	CC(C)[C]([NH])OCC#C	InChI=1S/C7H11NO/c1-4-5-9-7(8)6(2)3/h1,6,8H,5H2,2-3H3	InChI=1S/C7H11NO/c1-4-5-9-7(8)6(2)3/h1,6,8H,5H2,2-3H3
129165	C1	N3 C4 O2 H5	3.0103	66.28	-6.42188715405328	-1.1809741630759	5.24091299097738	2.71847190874674	-294931.81601032	-294926.617721837	-294926.025352894	-294953.395433624	28.996	N=C1NC(CC=O)=NO1	[NH][C@H]1NC(=NO1)CC=O	InChI=1S/C4H5N3O2/c5-4-6-3(1-2-8)7-9-4/h2H,1H2,(H2,5,6,7)	InChI=1S/C4H6N3O2/c5-4-6-3(1-2-8)7-9-4/h2,4-5H,1H2,(H,6,7)/t4-/m0/s1
83120	C1	C6 O2 N1 H9	1.1396	71.33	-6.3674643815613	0.655794408528322	7.02325879008962	4.02475450548542	-275523.901164441	-275518.682795654	-275518.090426711	-275544.360483333	31.764	CC1C2OC=NCC12O	C[C@H]1[C@H]2OC=NC[C@@]12O	InChI=1S/C6H9NO2/c1-4-5-6(4,8)2-7-3-9-5/h3-5,8H,2H2,1H3	InChI=1S/C6H9NO2/c1-4-5-6(4,8)2-7-3-9-5/h3-5,8H,2H2,1H3/t4-,5+,6+/m0/s1
116744	Cs	C5 N3 O1 H11	2.4923	84.92	-6.08446596460302	0.410891932314426	6.49535789691745	4.61750013208178	-273895.596910498	-273889.009943548	-273888.417574605	-273918.45394309	36.792	CCN=CNC(=N)OC	CCN=CNC(=N)OC	InChI=1S/C5H11N3O/c1-3-7-4-8-5(6)9-2/h4H,3H2,1-2H3,(H2,6,7,8)	InChI=1S/C5H11N3O/c1-3-7-4-8-5(6)9-2/h4H,3H2,1-2H3,(H2,6,7,8)
88395	C1	C6 O3 H10	2.0056	72.38	-6.79468314562332	-1.05580178634435	5.73888135927897	4.22092138893275	-288746.49152003	-288740.212032723	-288739.61966378	-288768.639466917	36.376	CC1OC1C(C)(O)C=O	C[C@H]1O[C@H]1[C@@](C)(O)C=O	InChI=1S/C6H10O3/c1-4-5(9-4)6(2,8)3-7/h3-5,8H,1-2H3	InChI=1S/C6H10O3/c1-4-5(9-4)6(2,8)3-7/h3-5,8H,1-2H3/t4-,5-,6+/m1/s1
61214	C1	C8 O1 H12	1.8826	84.3	-7.03958562183722	1.44492460966199	8.4845102314992	4.8673822919787	-242874.733203704	-242868.22279291	-242867.630423967	-242897.0010049	38.325	CC(CC#C)C1(C)CO1	C[C@@H](CC#C)[C@@]1(C)CO1	InChI=1S/C8H12O/c1-4-5-7(2)8(3)6-9-8/h1,7H,5-6H2,2-3H3	InChI=1S/C8H12O/c1-4-5-7(2)8(3)6-9-8/h1,7H,5-6H2,2-3H3/t7-,8+/m0/s1
86823	C1	N1 C6 O2 H11	2.9231	76.02	-6.62053027364899	0.933350548237404	7.5538808218864	4.6140170746423	-276298.393437633	-276291.96523058	-276291.372861637	-276322.146553754	36.177	NC(=O)CC1CC(O)C1	NC(=O)C[C@H]1C[C@@H](O)C1	InChI=1S/C6H11NO2/c7-6(9)3-4-1-5(8)2-4/h4-5,8H,1-3H2,(H2,7,9)	InChI=1S/C6H11NO2/c7-6(9)3-4-1-5(8)2-4/h4-5,8H,1-3H2,(H2,7,9)/t4-,5+
82930	C1	C7 O1 N1 H11	2.4944	78.11	-5.99738952861586	1.78234579911224	7.7797353277281	4.66966435951534	-252950.315856147	-252945.194751329	-252944.602382385	-252970.402434412	32.803	CC12C(O)C1CC1CN21	C[C@]12[C@@H](O)[C@H]1C[C@H]1CN21	InChI=1S/C7H11NO/c1-7-5(6(7)9)2-4-3-8(4)7/h4-6,9H,2-3H2,1H3	InChI=1S/C7H11NO/c1-7-5(6(7)9)2-4-3-8(4)7/h4-6,9H,2-3H2,1H3/t4-,5+,6-,7+,8?/m0/s1
45493	C1	O2 C6 N1 H7	4.3906	67.24	-6.56066522390782	0.604092774660944	7.16475799856876	3.47941111372956	-274793.188972235	-274789.242565153	-274788.6495687	-274812.385114556	25.818	O=C1NC2COC3C2C13	O=C1N[C@H]2CO[C@@H]3[C@H]2[C@H]13	InChI=1S/C6H7NO2/c8-6-4-3-2(7-6)1-9-5(3)4/h2-5H,1H2,(H,7,8)	InChI=1S/C6H7NO2/c8-6-4-3-2(7-6)1-9-5(3)4/h2-5H,1H2,(H,7,8)/t2-,3+,4-,5+/m0/s1
68429	C1	N2 C6 O1 H8	3.7339	71.86	-6.91985552235487	0.228575644466303	7.14843116682117	3.74518472319413	-262292.144777964	-262287.366293319	-262286.773924375	-262312.147897468	30.06	NC12CC(C1)OC2C#N	N[C@@]12C[C@@H](C1)O[C@H]2C#N	InChI=1S/C6H8N2O/c7-3-5-6(8)1-4(2-6)9-5/h4-5H,1-2,8H2	InChI=1S/C6H8N2O/c7-3-5-6(8)1-4(2-6)9-5/h4-5H,1-2,8H2/t4-,5-,6-/m0/s1
131026	Cs	O2 C5 N2 H4	1.4255	71.06	-7.61102473300297	-2.6014085251165	5.00961620788648	2.43702454080448	-284125.029825754	-284120.313464547	-284119.721095603	-284145.492909703	26.329	O=CN1N=CC=C1C=O	O=Cn1nccc1C=O	InChI=1S/C5H4N2O2/c8-3-5-1-2-6-7(5)4-9/h1-4H	InChI=1S/C5H4N2O2/c8-3-5-1-2-6-7(5)4-9/h1-4H
37396	C1	C8 O1 H10	1.8586	76.59	-6.95250918585005	2.19323773142667	9.14574691727672	4.44040843039289	-242117.53195407	-242113.785095	-242113.192098547	-242136.266249418	26.611	C1C2C3OC3C3CC2C13	C1[C@H]2[C@H]3O[C@H]3[C@@H]3C[C@H]2[C@H]13	InChI=1S/C8H10O/c1-3-4-2-6(3)8-7(9-8)5(1)4/h3-8H,1-2H2	InChI=1S/C8H10O/c1-3-4-2-6(3)8-7(9-8)5(1)4/h3-8H,1-2H2/t3-,4-,5+,6+,7-,8+/m0/s1
36383	C1	C8 N1 H9	1.0343	82.91	-6.34841641118911	0.952398518609596	7.30081492979871	3.9356916383023	-228854.416409136	-228848.436243848	-228847.843874905	-228876.195380452	35.304	C#CCC1CN1CC#C	C#CC[C@H]1CN1CC#C	InChI=1S/C8H9N/c1-3-5-8-7-9(8)6-4-2/h1-2,8H,5-7H2	InChI=1S/C8H9N/c1-3-5-8-7-9(8)6-4-2/h1-2,8H,5-7H2/t8-,9?/m0/s1
100421	C1	C6 O2 N1 H11	1.9518	79.22	-6.24773428207895	-0.380959407443839	5.86677487463511	4.55281866697507	-276299.253753122	-276292.440882762	-276291.848513818	-276322.546277289	37.281	COC(C)=NCC(C)=O	COC(=NCC(=O)C)C	InChI=1S/C6H11NO2/c1-5(8)4-7-6(2)9-3/h4H2,1-3H3	InChI=1S/C6H11NO2/c1-5(8)4-7-6(2)9-3/h4H2,1-3H3